
                                 *****************
                                 * O   R   C   A *
                                 *****************

                                            #,                                       
                                            ###                                      
                                            ####                                     
                                            #####                                    
                                            ######                                   
                                           ########,                                 
                                     ,,################,,,,,                         
                               ,,#################################,,                 
                          ,,##########################################,,             
                       ,#########################################, ''#####,          
                    ,#############################################,,   '####,        
                  ,##################################################,,,,####,       
                ,###########''''           ''''###############################       
              ,#####''   ,,,,##########,,,,          '''####'''          '####       
            ,##' ,,,,###########################,,,                        '##       
           ' ,,###''''                  '''############,,,                           
         ,,##''                                '''############,,,,        ,,,,,,###''
      ,#''                                            '''#######################'''  
     '                                                          ''''####''''         
             ,#######,   #######,   ,#######,      ##                                
            ,#'     '#,  ##    ##  ,#'     '#,    #''#        ,####,    ,#,          
            ##       ##  ##   ,#'  ##            #'  '#       #'       ,# #          
            ##       ##  #######   ##           ,######,      #####,      #          
            '#,     ,#'  ##    ##  '#,     ,#' ,#      #,     #,   #      #          
             '#######'   ##     ##  '#######'  #'      '#     '####' #    #          



                #########################################################
                #                        -***-                          #
                #          Department of theory and spectroscopy        #
                #                                                       #
                #                      Frank Neese                      #
                #                                                       #
                #     Directorship, Architecture, Infrastructure        #
                #                    SHARK, DRIVERS                     #
                #        Core code/Algorithms in most modules           #
                #                                                       #
                #        Max Planck Institute fuer Kohlenforschung      #
                #                Kaiser Wilhelm Platz 1                 #
                #                 D-45470 Muelheim/Ruhr                 #
                #                      Germany                          #
                #                                                       #
                #                  All rights reserved                  #
                #                        -***-                          #
                #########################################################


                         Program Version 6.1.0  -  RELEASE   -
                                (GIT: $679e74b$)
                          ($2025-06-10 18:02:51 +0200$)


 With contributions from (in alphabetic order):
[Max-Planck-Institut fuer Kohlenforschung]                               
  Daniel Aravena         : Magnetic Suceptibility                        
  Michael Atanasov       : Ab Initio Ligand Field Theory (pilot matlab implementation)
  Alexander A. Auer      : GIAO ZORA, VPT2 properties, NMR spectrum      
  Ute Becker             : All parallelization in ORCA, NUMFREQ, NUMCALC 
  Giovanni Bistoni       : ED, misc. LED, open-shell LED, HFLD           
  Dmytro Bykov           : pre 5.0 version of the SCF Hessian            
  Marcos Casanova-Páez   : Triplet and SCS-CIS(D). UHF-(DLPNO)-IP/EA/STEOM-CCSD. UHF-CVS-IP/STEOM-CCSD   
  Vijay G. Chilkuri      : MRCI spin determinant printing, contributions to CSF-ICE 
  Pauline Colinet        : FMM embedding                                 
  Dipayan Datta          : RHF DLPNO-CCSD density                        
  Achintya Kumar Dutta   : EOM-CC, STEOM-CC                              
  Nicolas Foglia         : Exact transition moments, OPA infrastructure, MCD improvements    
  Dmitry Ganyushin       : Spin-Orbit,Spin-Spin,Magnetic field MRCI      
  Miquel Garcia-Rates    : C-PCM and meta-GGA Hessian, CCSD/C-PCM, Gaussian charge scheme 
  Tiago L. C. Gouveia    : GS-ROHF, GS-ROCIS                             
  Yang Guo               : DLPNO-NEVPT2, F12-NEVPT2, CIM, IAO-localization        
  Andreas Hansen         : Spin unrestricted coupled pair/coupled cluster methods 
  Ingolf Harden          : AUTO-CI MPn and infrastructure                
  Benjamin Helmich-Paris : MC-RPA, TRAH-(SCF,CASSCF), AVAS, COSX integrals, SCF dyn. polar., MC-PDFT, srDFT 
  Lee Huntington         : MR-EOM, pCC                                   
  Robert Izsak           : Overlap fitted RIJCOSX, COSX-SCS-MP3, EOM     
  Riya Kayal             : Wick's Theorem for AUTO-CI, AUTO-CI UHF-CCSDT 
  Emily Kempfer          : AUTO-CI RHF CISDT and CCSDT, approximate NEVPT4
  Christian Kollmar      : KDIIS, OOCD, Brueckner-CCSD(T), CCSD density, CASPT2, CASPT2-K, improved NEVPT2 
  Axel Koslowski         : Symmetry handling                             
  Simone Kossmann        : meta-GGA functionals, TD-DFT gradient, OOMP2, (MP2 Hessian; deprecated post 5.0) 
  Lucas Lang             : DCDCAS, Hyperfine gauge corrections, ICE-SOC+SSC
  Marvin Lechner         : AUTO-CI (C++ implementation), FIC-MRCC        
  Spencer Leger          : CASSCF response                               
  Dagmar Lenk            : GEPOL surface, SMD, ORCA-2-JSON               
  Dimitrios Liakos       : Extrapolation schemes; Compound Job, Property file
  Dimitrios Manganas     : Further ROCIS development; embedding schemes. LFT, Crystal Embedding 
  Dimitrios Pantazis     : SARC Basis sets                               
  Anastasios Papadopoulos: AUTO-CI, single reference methods and gradients 
  Taras Petrenko         : pre 6.0 DFT Hessian and TD-DFT gradient,  ECA, NRVS 
  Petra Pikulova         : Analytic Raman intensities                    
  Peter Pinski           : DLPNO-MP2, DLPNO-MP2 Gradient                 
  Shashank Vittal Rao    : ES-AILFT, MagRelax                            
  Christoph Reimann      : Effective Core Potentials                     
  Marius Retegan         : Local ZFS, SOC                                
  Christoph Riplinger    : Optimizer, TS searches, QM/MM, DLPNO-CCSD(T), (RO)-DLPNO pert. Triples 
  Michael Roemelt        : Original ROCIS implementation, recursive CI coupling coefficients
  Masaaki Saitow         : Open-shell DLPNO-CCSD energy and density      
  Barbara Sandhoefer     : DKH picture change effects                    
  Yorick L. A. Schmerwitz: GMF and freeze-and-release deltaSCF, NEB S-IDPP initial path                    
  Kantharuban Sivalingam : CASSCF convergence/infrastructure, NEVPT2, NEVPT3, NEVPT4(SD), FIC-MRCI and CEPA variants
  Bernardo de Souza      : ESD, SOC TD-DFT                               
  Georgi L. Stoychev     : AutoAux, RI-MP2 NMR, DLPNO-MP2 response, X2C  
  Van Anh Tran           : RI-MP2 g-tensors                              
  Willem Van den Heuvel  : Paramagnetic NMR                              
  Zikuan Wang            : NOTCH, Electric field optimization            
  Frank Wennmohs         : Technical directorship and infrastructure     
  Hang Xu                : AUTO-CI-Response properties                   
                                                                         
[FACCTs GmbH]                                                            
  Markus Bursch, Nicolas Foglia, Miquel Garcia-Rates, Ingolf Harden, Hagen Neugebauer, Anastasios Papadopoulos, 
  Christoph Riplinger, Bernardo de Souza, Georgi L. Stoychev                                                    
                                                                 
  APM, various basis sets, CI-OPT, improved COSX, DLPNO-Multilevel,           
  DOCKER, DRACO, updates on ESD, Fragmentator, GOAT, IRC, LR-CPCM, L-BFGS, MBIS, meta-GGA TD-DFT gradient, ML-optimized integration grids, 
  MM, NACMEs, nearIR, NEB, NEB-TS, NL-DFT gradient (VV10), 2- and 3-layer-ONIOM, interface openCOSMO-RS, QMMM,   
  Crystal-QMMM, RESP, rigid body optimization, SF, symmetry and pop. for TD-DFT, various functionals, SOLVATOR                                   
                                                                         
[Other institutions]                                                     
  V. Asgeirsson          : NEB                                           
  Christoph Bannwarth    : sTDA-DFT, sTD-DFT, PBEh-3c, B97-3c, D3        
  Giovanni Bistoni       : ETS/NOCV, ADLD/ADEX, COVALED                  
  Martin Brehm           : Molecular dynamics                            
  Ronald Cardenas        : ETS/NOCV                                      
  Martina Colucci        : COVALED                                       
  Sebastian Ehlert       : rSCAN, r2SCAN, r2SCAN-3c, D4, dhf basis sets  
  Marvin Friede          : D4 for Fr, Ra, Ac-Lr                          
  Lars Goerigk           : TD-DFT with DH, B97 family of functionals     
  Stefan Grimme          : VdW corrections, initial TS optimization, DFT functionals, gCP, sTDA/sTD-DF 
  Waldemar Hujo          : DFT-NL                                        
  H. Jonsson             : NEB                                           
  Holger Kruse           : gCP                                           
  Marcel Mueller         : wB97X-3c, vDZP basis set                      
  Hagen Neugebauer       : wr2SCAN, Native XTB                           
  Gianluca Regni         : ADLD/ADEX                                     
  Tobias Risthaus        : pre 6.0 range-separated hybrid DFT and stability analysis
  Lukas Wittmann         : regularized MP2, r2SCAN double-hybrids, wr2SCAN        
                                                                         
We gratefully acknowledge several colleagues who have allowed us to      
interface, adapt or use parts of their codes:                            
  Ed Valeev, F. Pavosevic, A. Kumar             : LibInt (2-el integral package), F12 methods 
  Garnet Chan, S. Sharma, J. Yang, R. Olivares  : DMRG                   
  Ulf Ekstrom                                   : XCFun DFT Library      
  Mihaly Kallay                                 : mrcc  (arbitrary order and MRCC methods)
  Frank Weinhold                                : gennbo (NPA and NBO analysis)           
  Simon Mueller                                 : openCOSMO-RS                            
  Christopher J. Cramer and Donald G. Truhlar   : smd solvation model                     
  S Lehtola, MJT Oliveira, MAL Marques          : LibXC Library                           
  Liviu Ungur et al                             : ANISO software                          


 Your calculation uses the libint2 library for the computation of 2-el integrals
 For citations please refer to: http://libint.valeyev.net

 Your ORCA version has been built with support for libXC version: 7.0.0
 For citations please refer to: https://libxc.gitlab.io

 This ORCA versions uses:
   CBLAS   interface :  Fast vector & matrix operations
   LAPACKE interface :  Fast linear algebra routines
   SCALAPACK package :  Parallel linear algebra routines
   Shared memory     :  Shared parallel matrices
   BLAS/LAPACK       :  OpenBLAS 0.3.29  USE64BITINT DYNAMIC_ARCH NO_AFFINITY Zen SINGLE_THREADED
        Core in use  :  Zen
   Copyright (c) 2011-2014, The OpenBLAS Project


  ***********************************
  * Starting time: Thu Nov 27 23:01:12 2025
  * Host name:     vbox
  * Process ID:    6577
  * Working dir.:  /media/sf___/Formaldehyde_Project/tests
  ***********************************

NOTE: MaxCore=1000 MB was set to SCF,MP2,MDCI,CIPSI,MRCI,RASCI and CIS
      => If you want to overwrite this, your respective input block should be placed after the MaxCore statement
Your calculation utilizes the geometrical counterpoise correction gCP
Please cite in your paper:
H.Kruse, S. Grimme J.Chem.Phys., 136, (2012), 154101 
   

Your calculation utilizes the atom-pairwise dispersion correction
with the Becke-Johnson damping scheme (D3BJ)


================================================================================

----- Orbital basis set information -----
Your calculation utilizes the basis: MINIX,
   a combination of small basis sets by S. Grimme (see manual for definitions).

================================================================================
                                        WARNINGS
                       Please study these warnings very carefully!
================================================================================


WARNING: Geometry Optimization
  ===> : Switching off AutoStart
         For restart on a previous wavefunction, please use MOREAD

================================================================================
                                       INPUT FILE
================================================================================
NAME = CH₂OMe₂.inp
|  1> ! HF-3c OPT FREQ
|  2> %freq
|  3> Temp 300,400,500,600
|  4> end
|  5> %pal nprocs 2 end
|  6> %maxcore 1000
|  7> 
|  8> * xyz 0 1
|  9> C    0.00000000  0.00000000  0.00000000
| 10> O    1.40000000  0.00000000  0.00000000
| 11> C    2.10000000  1.26600000  0.00000000
| 12> H    1.50000000  2.00000000  0.50000000
| 13> H    3.10000000  1.26600000  0.40000000
| 14> H    2.10000000  1.60000000 -1.00000000
| 15> O   -1.40000000  0.00000000  0.00000000
| 16> C   -2.10000000 -1.26600000  0.00000000
| 17> H   -1.50000000 -2.00000000 -0.50000000
| 18> H   -3.10000000 -1.26600000 -0.40000000
| 19> H   -2.10000000 -1.60000000  1.00000000
| 20> H    0.00000000  0.90000000  0.80000000
| 21> H    0.00000000 -0.90000000  0.80000000
| 22> *
| 23> 
| 24>                          ****END OF INPUT****
================================================================================

                       *****************************
                       * Geometry Optimization Run *
                       *****************************

Geometry optimization settings:
Update method            Update   .... BFGS
Choice of coordinates    CoordSys .... (2022) Redundant Internals
Initial Hessian          InHess   .... Almloef's Model
Max. no of cycles        MaxIter  .... 50

Convergence Tolerances:
Energy Change            TolE     ....  5.0000e-06 Eh
Max. Gradient            TolMAXG  ....  3.0000e-04 Eh/bohr
RMS Gradient             TolRMSG  ....  1.0000e-04 Eh/bohr
Max. Displacement        TolMAXD  ....  4.0000e-03 bohr
RMS Displacement         TolRMSD  ....  2.0000e-03 bohr
Strict Convergence                .... False

------------------------------------------------------------------------------
                        ORCA OPTIMIZATION COORDINATE SETUP
------------------------------------------------------------------------------

The optimization will be done in redundant internal coordinates (2022)
Making redundant internal coordinates   ...  (2022 redundants) done
Evaluating the initial hessian          ...  (Almloef) done
Evaluating the coordinates              ...  done
Calculating the B-matrix                .... done
Calculating the G-matrix                .... done
The number of degrees of freedom        ....   42

    -----------------------------------------------------------------
                    Redundant Internal Coordinates


    -----------------------------------------------------------------
         Definition                    Initial Value    Approx d2E/dq
    -----------------------------------------------------------------
      1. B(O   1,C   0)                  1.4000         0.539413   
      2. B(C   2,O   1)                  1.4466         0.454481   
      3. B(H   3,C   2)                  1.0718         0.384999   
      4. B(H   4,C   2)                  1.0770         0.377669   
      5. B(H   5,C   2)                  1.0543         0.410558   
      6. B(O   6,C   0)                  1.4000         0.539413   
      7. B(C   7,O   6)                  1.4466         0.454481   
      8. B(H   8,C   7)                  1.0718         0.384999   
      9. B(H   9,C   7)                  1.0770         0.377669   
     10. B(H  10,C   7)                  1.0543         0.410558   
     11. B(H  11,C   0)                  1.2042         0.236749   
     12. B(H  12,C   0)                  1.2042         0.236749   
     13. A(O   6,C   0,H  11)           90.0000         0.319651   
     14. A(O   6,C   0,H  12)           90.0000         0.319651   
     15. A(O   1,C   0,H  11)           90.0000         0.319651   
     16. A(O   1,C   0,H  12)           90.0000         0.319651   
     17. A(H  11,C   0,H  12)           96.7329         0.255939   
     18. A(C   0,O   1,C   2)          118.9392         0.395557   
     19. A(H   4,C   2,H   5)          110.6257         0.299174   
     20. A(O   1,C   2,H   4)          116.6970         0.335616   
     21. A(H   3,C   2,H   5)          103.0338         0.300090   
     22. A(O   1,C   2,H   5)          106.0955         0.340321   
     23. A(H   3,C   2,H   4)          110.2741         0.296138   
     24. A(O   1,C   2,H   3)          109.1740         0.336691   
     25. A(C   0,O   6,C   7)          118.9392         0.395557   
     26. A(H   9,C   7,H  10)          110.6257         0.299174   
     27. A(H   8,C   7,H  10)          103.0338         0.300090   
     28. A(O   6,C   7,H  10)          106.0955         0.340321   
     29. A(H   8,C   7,H   9)          110.2741         0.296138   
     30. A(O   6,C   7,H   9)          116.6970         0.335616   
     31. A(O   6,C   7,H   8)          109.1740         0.336691   
     32. D(C   2,O   1,C   0,H  12)   -138.3665         0.023145   
     33. D(C   2,O   1,C   0,H  11)    -41.6335         0.023145   
     34. D(H   3,C   2,O   1,C   0)     29.5975         0.016269   
     35. D(H   5,C   2,O   1,C   0)    -80.8194         0.016269   
     36. D(H   4,C   2,O   1,C   0)    155.4361         0.016269   
     37. D(C   7,O   6,C   0,H  12)    -41.6335         0.023145   
     38. D(C   7,O   6,C   0,H  11)   -138.3665         0.023145   
     39. D(C   7,O   6,O   1,C   2)    180.0000         0.010000   
     40. D(H  10,C   7,O   6,C   0)     80.8194         0.016269   
     41. D(H   9,C   7,O   6,C   0)   -155.4361         0.016269   
     42. D(H   8,C   7,O   6,C   0)    -29.5975         0.016269   
    -----------------------------------------------------------------

Number of atoms                         .... 13
Number of degrees of freedom            .... 42


         *************************************************************
         *                GEOMETRY OPTIMIZATION CYCLE   1            *
         *************************************************************
---------------------------------
CARTESIAN COORDINATES (ANGSTROEM)
---------------------------------
  C      0.000000    0.000000    0.000000
  O      1.400000    0.000000    0.000000
  C      2.100000    1.266000    0.000000
  H      1.500000    2.000000    0.500000
  H      3.100000    1.266000    0.400000
  H      2.100000    1.600000   -1.000000
  O     -1.400000    0.000000    0.000000
  C     -2.100000   -1.266000    0.000000
  H     -1.500000   -2.000000   -0.500000
  H     -3.100000   -1.266000   -0.400000
  H     -2.100000   -1.600000    1.000000
  H      0.000000    0.900000    0.800000
  H      0.000000   -0.900000    0.800000

----------------------------
CARTESIAN COORDINATES (A.U.)
----------------------------
  NO LB      ZA    FRAG     MASS         X           Y           Z
   0 C     6.0000    0    12.011    0.000000    0.000000    0.000000
   1 O     8.0000    0    15.999    2.645617    0.000000    0.000000
   2 C     6.0000    0    12.011    3.968425    2.392393    0.000000
   3 H     1.0000    0     1.008    2.834589    3.779452    0.944863
   4 H     1.0000    0     1.008    5.858151    2.392393    0.755890
   5 H     1.0000    0     1.008    3.968425    3.023562   -1.889726
   6 O     8.0000    0    15.999   -2.645617    0.000000    0.000000
   7 C     6.0000    0    12.011   -3.968425   -2.392393    0.000000
   8 H     1.0000    0     1.008   -2.834589   -3.779452   -0.944863
   9 H     1.0000    0     1.008   -5.858151   -2.392393   -0.755890
  10 H     1.0000    0     1.008   -3.968425   -3.023562    1.889726
  11 H     1.0000    0     1.008    0.000000    1.700754    1.511781
  12 H     1.0000    0     1.008    0.000000   -1.700754    1.511781

--------------------------------
INTERNAL COORDINATES (ANGSTROEM)
--------------------------------
 C      0   0   0     0.000000000000     0.00000000     0.00000000
 O      1   0   0     1.400000000000     0.00000000     0.00000000
 C      2   1   0     1.446636097987   118.93919715     0.00000000
 H      3   2   1     1.071800354544   109.17396500    29.59748840
 H      3   2   1     1.077032961427   116.69701200   155.43613863
 H      3   2   1     1.054303561599   106.09552189   279.18055070
 O      1   2   3     1.400000000000   180.00000000     0.00000000
 C      7   1   2     1.446636097987   118.93919715     0.00000000
 H      8   7   1     1.071800354544   109.17396500   330.40251160
 H      8   7   1     1.077032961427   116.69701200   204.56386137
 H      8   7   1     1.054303561599   106.09552189    80.81944930
 H      1   2   3     1.204159457879    90.00000000   318.36646066
 H      1   2   3     1.204159457879    90.00000000   221.63353934

---------------------------
INTERNAL COORDINATES (A.U.)
---------------------------
 C      0   0   0     0.000000000000     0.00000000     0.00000000
 O      1   0   0     2.645616587490     0.00000000     0.00000000
 C      2   1   0     2.733746040641   118.93919715     0.00000000
 H      3   2   1     2.025409140327   109.17396500    29.59748840
 H      3   2   1     2.035297334303   116.69701200   155.43613863
 H      3   2   1     1.992344993440   106.09552189   279.18055070
 O      1   2   3     2.645616587490   180.00000000     0.00000000
 C      7   1   2     2.733746040641   118.93919715     0.00000000
 H      8   7   1     2.025409140327   109.17396500   330.40251160
 H      8   7   1     2.035297334303   116.69701200   204.56386137
 H      8   7   1     1.992344993440   106.09552189    80.81944930
 H      1   2   3     2.275531596963    90.00000000   318.36646066
 H      1   2   3     2.275531596963    90.00000000   221.63353934

---------------------
BASIS SET INFORMATION
---------------------
There are 3 groups of distinct atoms

 Group   1 Type C   : 6s3p contracted to 2s1p pattern {33/3}
 Group   2 Type O   : 6s3p contracted to 2s1p pattern {33/3}
 Group   3 Type H   : 3s contracted to 1s pattern {3}

Atom   0C    basis set group =>   1
Atom   1O    basis set group =>   2
Atom   2C    basis set group =>   1
Atom   3H    basis set group =>   3
Atom   4H    basis set group =>   3
Atom   5H    basis set group =>   3
Atom   6O    basis set group =>   2
Atom   7C    basis set group =>   1
Atom   8H    basis set group =>   3
Atom   9H    basis set group =>   3
Atom  10H    basis set group =>   3
Atom  11H    basis set group =>   3
Atom  12H    basis set group =>   3


           ************************************************************
           *        Program running with 2 parallel MPI-processes     *
           *              working on a common directory               *
           ************************************************************
------------------------------------------------------------------------------
                             ORCA STARTUP CALCULATIONS
------------------------------------------------------------------------------
------------------------------------------------------------------------------
                   ___                                                        
                  /   \      - P O W E R E D   B Y -                         
                 /     \                                                     
                 |  |  |   _    _      __       _____    __    __             
                 |  |  |  | |  | |    /  \     |  _  \  |  |  /  |          
                  \  \/   | |  | |   /    \    | | | |  |  | /  /          
                 / \  \   | |__| |  /  /\  \   | |_| |  |  |/  /          
                |  |  |   |  __  | /  /__\  \  |    /   |      \           
                |  |  |   | |  | | |   __   |  |    \   |  |\   \          
                \     /   | |  | | |  |  |  |  | |\  \  |  | \   \       
                 \___/    |_|  |_| |__|  |__|  |_| \__\ |__|  \__/        
                                                                              
                      - O R C A' S   B I G   F R I E N D -                    
                                      &                                       
                       - I N T E G R A L  F E E D E R -                       
                                                                              
 v1 FN, 2020, v2 2021, v3 2022-2024                                           
------------------------------------------------------------------------------


----------------------
SHARK INTEGRAL PACKAGE
----------------------

Number of atoms                             ...     13
Number of basis functions                   ...     33
Number of shells                            ...     23
Maximum angular momentum                    ...      1
Integral batch strategy                     ... SHARK/LIBINT Hybrid
RI-J (if used) integral strategy            ... SPLIT-RIJ (Revised 2003 algorithm where possible)
Printlevel                                  ...      1
Contraction scheme used                     ... SEGMENTED contraction
Prescreening option                         ... SCHWARTZ
   Thresh                                   ... 2.500e-11
   Tcut                                     ... 2.500e-12
   Tpresel                                  ... 2.500e-12 
Coulomb Range Separation                    ... NOT USED
Exchange Range Separation                   ... NOT USED
Multipole approximations                    ... NOT USED
Finite Nucleus Model                        ... NOT USED
CABS basis                                  ... NOT available
Auxiliary Coulomb fitting basis             ... NOT available
Auxiliary J/K fitting basis                 ... NOT available
Auxiliary Correlation fitting basis         ... NOT available
Auxiliary 'external' fitting basis          ... NOT available

Checking pre-screening integrals            ... done (  0.0 sec) Dimension = 23
   => SHARK Basis and OBASIS are compatible. Storing Pre-screening
Shell pair information
Shell pair cut-off parameter TPreSel        ...   2.5e-12
Total number of shell pairs                 ...       276
Shell pairs after pre-screening             ...       268
Total number of primitive shell pairs       ...      2484
Primitive shell pairs kept                  ...      1810
          la=0 lb=0:    163 shell pairs
          la=1 lb=0:     90 shell pairs
          la=1 lb=1:     15 shell pairs

Checking whether 4 symmetric matrices of dimension 33 fit in memory
:Max Core in MB      =   1000.00
 MB in use           =      1.27
 MB left             =    998.73
 MB needed           =      0.02
 Data fit in memory  = YES
Calculating Nuclear repulsion               ... done (  0.0 sec) ENN=    187.604394915922 Eh
Entering conventional section               ... 
Calculating 4-index integrals               ...     -> SHARK/Ints2Disk: Thresh =     2.500000e-11 TCut=    2.500000e-12 
    -> calling libint FockFlag=2 Lmax_loc=1
    ->Total LIBINT loop time =    0.000 sec
    -> L=0 0 0 0:     0.011 sec done=     12352 (=100.0%) skipped=         0 
    -> L=1 0 0 0:     0.034 sec done=     14100 (=100.0%) skipped=         0 
    -> L=1 0 1 0:     0.015 sec done=      4026 (=100.0%) skipped=         0 
    -> L=1 1 0 0:     0.008 sec done=      2412 (=100.0%) skipped=         0 
    -> L=1 1 1 0:     0.010 sec done=      1348 (=100.0%) skipped=         0 
    -> L=1 1 1 1:     0.003 sec done=       120 (=100.0%) skipped=         0 
    ->Total SHARK integral loop time =    0.083 sec
    -> Total Integral generation matrix time =    0.456 sec
    -> Number of small integrals   =      8413
    -> Number of medium integrals  =     19311
    -> Number of large integrals   =     93122
    -> Number of MB stored         =         1 MB

done (  0.5 sec)
Leaving conventional section

Diagonalization of the overlap matrix:
Smallest eigenvalue                        ... 2.122e-01
Time for diagonalization                   ...    0.001 sec
Threshold for overlap eigenvalues          ... 1.000e-07
Number of eigenvalues below threshold      ... 0
Time for construction of square roots      ...    0.015 sec
Total time needed                          ...    0.102 sec

-------------------
DFT GRID GENERATION
-------------------

General Integration Accuracy     IntAcc      ... 4.388
Radial Grid Type                 RadialGrid  ... OptM3 with GC (2021)
Angular Grid (max. ang.)         AngularGrid ... 4 (Lebedev-302)
Angular grid pruning method      GridPruning ... 4 (adaptive)
Weight generation scheme         WeightScheme... mBecke (2022)
Basis function cutoff            BFCut       ... 1.0000e-11
Integration weight cutoff        WCut        ... 1.0000e-14
Partially contracted basis set               ... off
Rotationally invariant grid construction     ... off
Angular grids for H and He will be reduced by one unit

Total number of grid points                  ...    56267
Total number of batches                      ...      886
Average number of points per batch           ...       63
Average number of grid points per atom       ...     4328
Grids setup in   1.3 sec
Initializing property integral containers    ... done (  0.2 sec)

SHARK setup successfully completed in   2.4 seconds

Maximum memory used throughout the entire STARTUP-calculation: 29.9 MB


           ************************************************************
           *        Program running with 2 parallel MPI-processes     *
           *              working on a common directory               *
           ************************************************************
-------------------------------------------------------------------------------
                                 ORCA GUESS
                   Start orbitals & Density for SCF / CASSCF
-------------------------------------------------------------------------------

------------
SCF SETTINGS
------------
Hamiltonian:
 Ab initio Hamiltonian  Method          .... Hartree-Fock(GTOs)


General Settings:
 Integral files         IntName         .... CH₂OMe₂
 Hartree-Fock type      HFTyp           .... RHF
 Total Charge           Charge          ....    0
 Multiplicity           Mult            ....    1
 Number of Electrons    NEL             ....   42
 Basis Dimension        Dim             ....   33
 Nuclear Repulsion      ENuc            ....    187.6043949159 Eh

Convergence Acceleration:
 AO-DIIS                CNVDIIS         .... on
   Start iteration      DIISMaxIt       ....    12
   Startup error        DIISStart       ....  0.200000
   # of expansion vecs  DIISMaxEq       ....     5
   Bias factor          DIISBfac        ....   1.050
   Max. coefficient     DIISMaxC        ....  10.000
 MO-DIIS                CNVKDIIS        .... off
 Trust-Rad. Augm. Hess. CNVTRAH         .... auto
   Auto Start mean grad. ratio tolernc. ....  1.125000
   Auto Start start iteration           ....    50
   Auto Start num. interpolation iter.  ....    10
   Max. Number of Micro iterations      ....    24
   Max. Number of Macro iterations      .... Maxiter - #DIIS iter
   Number of Davidson start vectors     ....     2
   Converg. threshold    (grad. norm)   ....   1.000e-05
   Grad. Scal. Fac. for Micro threshold ....   0.100
   Minimum threshold for Micro iter.    ....   1.000e-02
   NR start threshold (gradient norm)   ....   1.000e-04
   Initial trust radius                 ....   0.400
   Minimum AH scaling param. (alpha)    ....   1.000
   Maximum AH scaling param. (alpha)    .... 1000.000
   Quad. conv. algorithm                .... NR
   White noise on init. David. guess    .... on
   Maximum white noise                  ....   0.010
   Pseudo random numbers                .... off
   Inactive MOs                         .... canonical
   Orbital update algorithm             .... Taylor
   Preconditioner                       .... Diag
   Full preconditioner red. dimension   ....   250
 SOSCF                 CNVSOSCF           .... on
   Start iteration     SOSCFMaxIt         ....   150
   Startup grad/error  SOSCFStart         ....  0.003300
   Hessian update      SOSCFHessUp        .... L-BFGS
   Autom. constraints  SOSCFAutoConstrain .... off
 Level Shifting         CNVShift        .... on
   Level shift para.    LevelShift      ....    0.2500
   Turn off err/grad.   ShiftErr        ....    0.0010
 Zerner damping         CNVZerner       .... off
 Static damping         CNVDamp         .... on
   Fraction old density DampFac         ....    0.7000
   Max. Damping (<1)    DampMax         ....    0.9800
   Min. Damping (>=0)   DampMin         ....    0.0000
   Turn off err/grad.   DampErr         ....    0.1000

SCF Procedure:
 Maximum # iterations   MaxIter         ....   125
 SCF integral mode      SCFMode         .... Conventional
 Integral Threshold     Thresh          ....  2.500e-11 Eh
 Primitive CutOff       TCut            ....  2.500e-12 Eh
 Integral Buffer length BufferLength    .... 1048576
 Integral index format  IndFormat       ....     0
 Integral value format  ValFormat       ....     0
 Integral Storage       Thresh          ....  2.500e-11 Eh

Convergence Tolerance:
 Convergence Check Mode ConvCheckMode   .... Total+1el-Energy
 Convergence forced     ConvForced      .... 0
 Energy Change          TolE            ....  1.000e-08 Eh
 1-El. energy change                    ....  1.000e-05 Eh
 Orbital Gradient       TolG            ....  1.000e-05
 Orbital Rotation angle TolX            ....  1.000e-05
 DIIS Error             TolErr          ....  5.000e-07

--------------------------------
INITIAL GUESS: MINIMAL BASIS EHT
--------------------------------
The minimal basis has 33 functions
EHT matrix was diagonalized
Basis set overlap was calculated now projecting the orbitals
Using GuessMode=FMatrix for the initial guess
C*T matrix was formed
Effective Fockian was calculated
Effective Fockian was diagonalized
Initial density was built
                      ------------------
                      INITIAL GUESS DONE
                      ------------------
             **** ENERGY FILE WAS UPDATED (CH₂OMe₂.en.tmp) ****
Finished Guess after   0.5 sec
Maximum memory used throughout the entire GUESS-calculation: 2.6 MB


           ************************************************************
           *        Program running with 2 parallel MPI-processes     *
           *              working on a common directory               *
           ************************************************************

-------------------------------------------------------------------------------------------
                                      ORCA LEAN-SCF
                              memory conserving SCF solver
-------------------------------------------------------------------------------------------


 InCore treatment chosen for four center integrals:
   Memory dedicated               ...    1000 MB
   Memory needed                  ...      0 MB
   Number of tiny    integrals    ...    8413
   Number of small   integrals    ...   19311
   Number of regular integrals    ...   93122

----------------------------------------D-I-I-S--------------------------------------------
Iteration    Energy (Eh)           Delta-E    RMSDP     MaxDP     DIISErr   Damp  Time(sec)
-------------------------------------------------------------------------------------------
    1    -265.5765461097125240     0.00e+00  1.84e-02  8.49e-02  2.12e-01  0.700   0.4
    2    -265.6729647914343673    -9.64e-02  1.60e-02  6.87e-02  1.53e-01  0.700   0.4
                               ***Turning on AO-DIIS***
    3    -265.7414620803602929    -6.85e-02  1.18e-02  5.07e-02  1.10e-01  0.700   0.4
    4    -265.7898454275774043    -4.84e-02  9.26e-03  4.00e-02  7.75e-02  0.700   0.4
    5    -265.8247074132436296    -3.49e-02  2.43e-02  1.05e-01  5.44e-02  0.000   0.4
    6    -265.9128878429126530    -8.82e-02  3.85e-03  2.08e-02  6.02e-03  0.000   0.4
                              *** Initializing SOSCF ***
---------------------------------------S-O-S-C-F--------------------------------------
Iteration    Energy (Eh)           Delta-E    RMSDP     MaxDP     MaxGrad    Time(sec)
--------------------------------------------------------------------------------------
    7    -265.9138463974202296    -9.59e-04  3.32e-03  1.67e-02  3.22e-03     0.5
    8    -265.9142959972697895    -4.50e-04  1.28e-03  4.91e-03  2.86e-03     0.4
    9    -265.9143850178248840    -8.90e-05  1.82e-03  7.21e-03  1.81e-03     0.3
   10    -265.9144310869982633    -4.61e-05  1.37e-04  5.42e-04  2.04e-04     0.4
   11    -265.9144322043844113    -1.12e-06  1.30e-04  4.24e-04  1.47e-04     0.3
   12    -265.9144326161028289    -4.12e-07  2.28e-05  8.22e-05  2.66e-05     0.3
   13    -265.9144326325392740    -1.64e-08  4.07e-06  1.57e-05  5.81e-06     0.3
   14    -265.9144326334302946    -8.91e-10  1.11e-06  4.42e-06  2.08e-06     0.3
                 **** Energy Check signals convergence ****

               *****************************************************
               *                     SUCCESS                       *
               *           SCF CONVERGED AFTER  14 CYCLES          *
               *****************************************************

             **** ENERGY FILE WAS UPDATED (CH₂OMe₂.en.tmp) ****

----------------
TOTAL SCF ENERGY
----------------

Total Energy       :       -265.91443263348947 Eh           -7235.89958 eV

Components:
Nuclear Repulsion  :        187.60439491592228 Eh            5104.97512 eV
Electronic Energy  :       -453.51882754941175 Eh          -12340.87470 eV
One Electron Energy:       -735.55549325649167 Eh          -20015.48254 eV
Two Electron Energy:        282.03666570707992 Eh            7674.60784 eV

Virial components:
Potential Energy   :       -532.35743956913154 Eh          -14486.18239 eV
Kinetic Energy     :        266.44300693564207 Eh            7250.28282 eV
Virial Ratio       :          1.99801618249159

---------------
SCF CONVERGENCE
---------------

  Last Energy change         ...    8.9102e-10  Tolerance :   1.0000e-08
  Last MAX-Density change    ...    4.4198e-06  Tolerance :   1.0000e-07
  Last RMS-Density change    ...    1.1147e-06  Tolerance :   5.0000e-09
  Last DIIS Error            ...    3.2152e-03  Tolerance :   5.0000e-07
  Last Orbital Gradient      ...    2.0787e-06  Tolerance :   1.0000e-05
  Last Orbital Rotation      ...    2.5498e-06  Tolerance :   1.0000e-05


----------------
ORBITAL ENERGIES
----------------

  NO   OCC          E(Eh)            E(eV) 
   0   2.0000     -20.328117      -553.1562 
   1   2.0000     -20.326989      -553.1255 
   2   2.0000     -11.247183      -306.0514 
   3   2.0000     -11.222513      -305.3801 
   4   2.0000     -11.221809      -305.3609 
   5   2.0000      -1.377696       -37.4890 
   6   2.0000      -1.345039       -36.6004 
   7   2.0000      -0.981437       -26.7063 
   8   2.0000      -0.952078       -25.9074 
   9   2.0000      -0.815251       -22.1841 
  10   2.0000      -0.676745       -18.4152 
  11   2.0000      -0.655429       -17.8351 
  12   2.0000      -0.653040       -17.7701 
  13   2.0000      -0.628472       -17.1016 
  14   2.0000      -0.614642       -16.7253 
  15   2.0000      -0.538008       -14.6399 
  16   2.0000      -0.520963       -14.1761 
  17   2.0000      -0.494877       -13.4663 
  18   2.0000      -0.436083       -11.8664 
  19   2.0000      -0.369545       -10.0558 
  20   2.0000      -0.335165        -9.1203 
  21   0.0000       0.209459         5.6997 
  22   0.0000       0.447475        12.1764 
  23   0.0000       0.537179        14.6174 
  24   0.0000       0.559713        15.2306 
  25   0.0000       0.661608        18.0033 
  26   0.0000       0.677981        18.4488 
  27   0.0000       0.685250        18.6466 
  28   0.0000       0.707619        19.2553 
  29   0.0000       0.754869        20.5410 
  30   0.0000       0.788312        21.4511 
  31   0.0000       0.798618        21.7315 
*Only the first 10 virtual orbitals were printed.

                    ********************************
                    * MULLIKEN POPULATION ANALYSIS *
                    ********************************

-----------------------
MULLIKEN ATOMIC CHARGES
-----------------------
   0 C :    0.114685
   1 O :   -0.386161
   2 C :   -0.191006
   3 H :    0.133507
   4 H :    0.153395
   5 H :    0.134663
   6 O :   -0.384962
   7 C :   -0.192805
   8 H :    0.137736
   9 H :    0.149709
  10 H :    0.137403
  11 H :    0.097848
  12 H :    0.095988
Sum of atomic charges:    0.0000000

--------------------------------
MULLIKEN REDUCED ORBITAL CHARGES
--------------------------------
  0 C s       :     3.083200  s :     3.083200
      pz      :     0.931747  p :     2.802115
      px      :     0.695641
      py      :     1.174727

  1 O s       :     3.779234  s :     3.779234
      pz      :     1.883089  p :     4.606927
      px      :     1.227608
      py      :     1.496230

  2 C s       :     3.141704  s :     3.141704
      pz      :     1.134506  p :     3.049301
      px      :     1.067567
      py      :     0.847228

  3 H s       :     0.866493  s :     0.866493

  4 H s       :     0.846605  s :     0.846605

  5 H s       :     0.865337  s :     0.865337

  6 O s       :     3.779587  s :     3.779587
      pz      :     1.880364  p :     4.605375
      px      :     1.227179
      py      :     1.497832

  7 C s       :     3.142798  s :     3.142798
      pz      :     1.133810  p :     3.050007
      px      :     1.067689
      py      :     0.848509

  8 H s       :     0.862264  s :     0.862264

  9 H s       :     0.850291  s :     0.850291

 10 H s       :     0.862597  s :     0.862597

 11 H s       :     0.902152  s :     0.902152

 12 H s       :     0.904012  s :     0.904012



                     *******************************
                     * LOEWDIN POPULATION ANALYSIS *
                     *******************************

----------------------
LOEWDIN ATOMIC CHARGES
----------------------
   0 C :    0.111514
   1 O :   -0.284267
   2 C :   -0.085626
   3 H :    0.081748
   4 H :    0.098572
   5 H :    0.079900
   6 O :   -0.283710
   7 C :   -0.085987
   8 H :    0.085171
   9 H :    0.094838
  10 H :    0.082228
  11 H :    0.053762
  12 H :    0.051856

-------------------------------
LOEWDIN REDUCED ORBITAL CHARGES
-------------------------------
  0 C s       :     2.993657  s :     2.993657
      pz      :     0.932604  p :     2.894829
      px      :     0.797154
      py      :     1.165070

  1 O s       :     3.647772  s :     3.647772
      pz      :     1.879969  p :     4.636494
      px      :     1.252765
      py      :     1.503760

  2 C s       :     2.986153  s :     2.986153
      pz      :     1.135466  p :     3.099473
      px      :     1.074154
      py      :     0.889853

  3 H s       :     0.918252  s :     0.918252

  4 H s       :     0.901428  s :     0.901428

  5 H s       :     0.920100  s :     0.920100

  6 O s       :     3.648565  s :     3.648565
      pz      :     1.877170  p :     4.635144
      px      :     1.252486
      py      :     1.505489

  7 C s       :     2.986516  s :     2.986516
      pz      :     1.134496  p :     3.099472
      px      :     1.073884
      py      :     0.891092

  8 H s       :     0.914829  s :     0.914829

  9 H s       :     0.905162  s :     0.905162

 10 H s       :     0.917772  s :     0.917772

 11 H s       :     0.946238  s :     0.946238

 12 H s       :     0.948144  s :     0.948144



                      *****************************
                      * MAYER POPULATION ANALYSIS *
                      *****************************

  NA   - Mulliken gross atomic population
  ZA   - Total nuclear charge
  QA   - Mulliken gross atomic charge
  VA   - Mayer's total valence
  BVA  - Mayer's bonded valence
  FA   - Mayer's free valence

  ATOM       NA         ZA         QA         VA         BVA        FA
  0 C      5.8853     6.0000     0.1147     3.8540     3.8540     0.0000
  1 O      8.3862     8.0000    -0.3862     2.0146     2.0146    -0.0000
  2 C      6.1910     6.0000    -0.1910     3.8555     3.8555     0.0000
  3 H      0.8665     1.0000     0.1335     0.9822     0.9822     0.0000
  4 H      0.8466     1.0000     0.1534     0.9765     0.9765     0.0000
  5 H      0.8653     1.0000     0.1347     0.9819     0.9819    -0.0000
  6 O      8.3850     8.0000    -0.3850     2.0119     2.0119     0.0000
  7 C      6.1928     6.0000    -0.1928     3.8573     3.8573     0.0000
  8 H      0.8623     1.0000     0.1377     0.9810     0.9810     0.0000
  9 H      0.8503     1.0000     0.1497     0.9776     0.9776     0.0000
 10 H      0.8626     1.0000     0.1374     0.9811     0.9811    -0.0000
 11 H      0.9022     1.0000     0.0978     0.9904     0.9904     0.0000
 12 H      0.9040     1.0000     0.0960     0.9908     0.9908    -0.0000

  Mayer bond orders larger than 0.100000
B(  0-C ,  1-O ) :   0.9559 B(  0-C ,  6-O ) :   0.9591 B(  0-C , 11-H ) :   0.9348 
B(  0-C , 12-H ) :   0.9393 B(  1-O ,  2-C ) :   0.9286 B(  2-C ,  3-H ) :   0.9588 
B(  2-C ,  4-H ) :   0.9614 B(  2-C ,  5-H ) :   0.9678 B(  6-O ,  7-C ) :   0.9254 
B(  7-C ,  8-H ) :   0.9685 B(  7-C ,  9-H ) :   0.9629 B(  7-C , 10-H ) :   0.9637 


-------
TIMINGS
-------

Total SCF time: 0 days 0 hours 0 min 6 sec 

Total time                  ....       6.244 sec
Sum of individual times     ....       4.808 sec  ( 77.0%)

SCF preparation             ....       0.506 sec  (  8.1%)
Fock matrix formation       ....       0.929 sec  ( 14.9%)
  Startup                   ....       0.260 sec  ( 27.9% of F)
  Coulomb+Exchange Fock     ....       0.356 sec  ( 38.3% of F)
Diagonalization             ....       0.000 sec  (  0.0%)
Density matrix formation    ....       0.847 sec  ( 13.6%)
Total Energy calculation    ....       0.303 sec  (  4.9%)
Population analysis         ....       0.139 sec  (  2.2%)
Orbital Transformation      ....       0.110 sec  (  1.8%)
Orbital Orthonormalization  ....       0.000 sec  (  0.0%)
DIIS solution               ....       1.002 sec  ( 16.0%)
SOSCF solution              ....       0.972 sec  ( 15.6%)
Finished LeanSCF after   6.4 sec

Maximum memory used throughout the entire LEANSCF-calculation: 52.3 MB


           ************************************************************
           *        Program running with 2 parallel MPI-processes     *
           *              working on a common directory               *
           ************************************************************

------------------------------------------------------------------------------
                         ORCA PROPERTY INTEGRAL CALCULATIONS
------------------------------------------------------------------------------

GBWName                                   ... CH₂OMe₂.gbw
Number of atoms                           ...     13
Number of basis functions                 ...     33
Max core memory                           ...   1000 MB

Dipole integrals                          ... YES
Quadrupole integrals                      ...  NO
Linear momentum integrals                 ...  NO
Angular momentum integrals                ...  NO
Higher moments length integrals           ...  NO
Higher moments velocity integrals         ...  NO
Kinetic energy integrals                  ...  NO
GIAO right hand sides                     ...  NO
GIAO dipole derivative integrals          ...  NO
SOC integrals                             ...  NO
EPR diamagnetic integrals (GIAO)          ...  NO
EPR gauge integrals                       ...  NO
Field gradient integrals                  ...  NO (   0 nuclei)
Spin-dipole/Fermi contact integrals       ...  NO (   0 nuclei)
Contact density integrals                 ...  NO (   0 nuclei)
Nucleus-orbit integrals                   ...  NO (   0 nuclei)
Geometric perturbations                   ...  NO (  13 nuclei)

Choice of electric origin   ... Center of mass
Position of electric origin ... (  0.0000,  0.0000,  0.0401) 
Choice of magnetic origin   ... GIAO
Position of magnetic origin ... (  0.0000,  0.0000,  0.0000) 

Calculating integrals                     ... Electric Dipole (Length)     done (  0.1 sec)

Property integrals calculated in   0.1 sec

Maximum memory used throughout the entire PROPINT-calculation: 2.8 MB


-------------------------------------------------------------------------------
                          DFT DISPERSION CORRECTION                            
                                                                               
                              DFTD3 V3.1  Rev 1                                
                          USING Becke-Johnson damping                          
-------------------------------------------------------------------------------
Hartree-Fock is recognized
Active option DFTDOPT                   ...         4   

molecular C6(AA) [au] = 1100.466093 


            DFT-D V3
 parameters
 using HF/MINIX parameters
 s6 scaling factor         :     1.0000 
 a1 scaling factor         :     0.4171 
 s8 scaling factor         :     0.8777 
 a2 scaling factor         :     2.9149 
 ad hoc parameters k1-k3   :    16.0000     1.3333    -4.0000 

 Edisp/kcal,au: -23.637052716684  -0.037668037173 
 E6   /kcal   : -13.707234789 
 E8   /kcal   :  -9.929817927 
 % E8         :  42.009543434 

-------------------------   ----------------
Dispersion correction           -0.037668037
-------------------------   ----------------

------------------   -----------------
gCP+bas correction        -0.039622449
------------------   -----------------
----------------------------   ----------------
Total correction to HF/MINIX       -0.077290486
----------------------------   ----------------


-------------------------   --------------------
FINAL SINGLE POINT ENERGY      -265.991723119362
-------------------------   --------------------



           ************************************************************
           *        Program running with 2 parallel MPI-processes     *
           *              working on a common directory               *
           ************************************************************
------------------------------------------------------------------------------
                         ORCA SCF GRADIENT CALCULATION
------------------------------------------------------------------------------

Nuc. rep. gradient        (SHARK) ... done (  0.0 sec)
HCore & Overlap gradient  (SHARK) ... done (  0.0 sec)
Two-electron gradient     (SHARK) ... done (  0.2 sec)
Dispersion correction             ... done (  0.1 sec)

-------------------
DISPERSION GRADIENT
-------------------

   1   C   :    0.000000007   -0.000001146    0.000358014
   2   O   :    0.000586715   -0.000711791   -0.000179865
   3   C   :    0.001174657    0.000606186   -0.000192407
   4   H   :    0.000324119    0.000954679    0.000254268
   5   H   :    0.000738262    0.000182412    0.000187060
   6   H   :    0.000441702    0.000486060   -0.000613421
   7   O   :   -0.000586757    0.000711676   -0.000196143
   8   C   :   -0.001174962   -0.000605897   -0.000201421
   9   H   :   -0.000325776   -0.000943522   -0.000463192
  10   H   :   -0.000706030   -0.000175603   -0.000222933
  11   H   :   -0.000626173   -0.000568232    0.000544059
  12   H   :   -0.000527214    0.000182192    0.000350070
  13   H   :    0.000681451   -0.000117015    0.000375912

Difference to translation invariance:
           :    0.0000000000   -0.0000000000    0.0000000000

Difference to rotation invariance:
           :    0.0000000000    0.0000000000    0.0000000000

Norm of the Dispersion gradient    ...    0.0034393601
RMS gradient                       ...    0.0005507384
MAX gradient                       ...    0.0011749622
gCP correction                   ... done

------------------
CARTESIAN GRADIENT
------------------

   1   C   :    0.000975437    0.001174961   -0.325652726
   2   O   :   -0.111024459    0.009102250    0.095443764
   3   C   :    0.042454425    0.015398380    0.019375556
   4   H   :    0.008399916   -0.012752965   -0.022089026
   5   H   :   -0.010799360    0.016888705   -0.007899209
   6   H   :   -0.015278946   -0.016975360    0.038500587
   7   O   :    0.107415542   -0.014761520    0.120578421
   8   C   :   -0.041204504   -0.012101597    0.017504453
   9   H   :   -0.003924832    0.015727059    0.019499314
  10   H   :    0.011458107   -0.012737028    0.007764032
  11   H   :    0.010286341    0.009978607   -0.040554850
  12   H   :    0.012952361    0.034280865    0.038520355
  13   H   :   -0.011710028   -0.033222359    0.039009329

Difference to translation invariance:
           :    0.0000000000   -0.0000000000    0.0000000000

Difference to rotation invariance:
           :    0.0000000780   -0.0000002164    0.0000003754

Norm of the Cartesian gradient     ...    0.4123796872
RMS gradient                       ...    0.0660335980
MAX gradient                       ...    0.3256527258

-------
TIMINGS
-------

Total SCF gradient time     ....        0.392 sec

Densities                   ....       0.000 sec  (  0.0%)
One electron gradient       ....       0.024 sec  (  6.0%)
Two electron gradient       ....       0.232 sec  ( 59.1%)

Maximum memory used throughout the entire SCFGRAD-calculation: 23.4 MB
------------------------------------------------------------------------------
                         ORCA GEOMETRY RELAXATION STEP
------------------------------------------------------------------------------

Reading the OPT-File                    .... done
Getting information on internals        .... done
Copying old internal coords+grads       .... done
Making the new internal coordinates     .... (2022 redundants) done
Validating the new internal coordinates .... (2022 redundants) done
Calculating the B-matrix                .... done
Calculating the G,G- and P matrices     .... done
Transforming gradient to internals      .... done
Projecting the internal gradient        .... done
Number of atoms                         ....  13
Number of internal coordinates          ....  42
Current Energy                          ....  -265.991723119 Eh
Current gradient norm                   ....     0.412379687 Eh/bohr
Maximum allowed component of the step   ....  0.300
Current trust radius                    ....  0.300
Evaluating the initial hessian          ....  (Almloef) done
Projecting the Hessian                  .... done
Forming the augmented Hessian           .... done
Diagonalizing the augmented Hessian     .... done
Last element of RFO vector              ....  0.793844925
Lowest eigenvalues of augmented Hessian:
 -0.358177221  0.016268818  0.016269660  0.017189338  0.023146398
Length of the computed step             ....  0.766044132
Warning: the length of the step is outside the trust region - taking restricted step instead
The input lambda is                     ....     0.015269
   iter:   5  x=    0.005527  g= 4149.816567 f(x)=    17.611653
   iter:  10  x=   -0.521584  g=    2.829835 f(x)=     0.663709
   iter:  15  x=   -1.305442  g=    0.115604 f(x)=     0.000180
The output lambda is                    ....    -1.305444 (18 iterations)
The final length of the internal step   ....  0.300000000
Converting the step to Cartesian space:
 Initial RMS(Int)=    0.0462910050
Transforming coordinates:
 Iter   0:  RMS(Cart)=    0.2004186273 RMS(Int)=    0.0508106944
 Iter   5:  RMS(Cart)=    0.0000381843 RMS(Int)=    0.0000178109
done
Storing new coordinates                 .... done

                                .--------------------.
          ----------------------|Geometry convergence|-------------------------
          Item                value                   Tolerance       Converged
          ---------------------------------------------------------------------
          RMS gradient        0.0724892008            0.0001000000      NO
          MAX gradient        0.2024829094            0.0003000000      NO
          RMS step            0.0462910050            0.0020000000      NO
          MAX step            0.1304428253            0.0040000000      NO
          -------------------------------------------------------------------------
          ........................................................
          Max(Bonds)      0.0247      Max(Angles)    7.47
          Max(Dihed)        6.40      Max(Improp)    0.00
          ---------------------------------------------------------------------

The optimization has not yet converged - more geometry cycles are needed


    ---------------------------------------------------------------------------
                         Redundant Internal Coordinates
                            (Angstroem and degrees)

        Definition                    Value    dE/dq     Step     New-Value
    ----------------------------------------------------------------------------
     1. B(O   1,C   0)                1.4000 -0.086248  0.0247    1.4247   
     2. B(C   2,O   1)                1.4466  0.014228 -0.0043    1.4424   
     3. B(H   3,C   2)                1.0718 -0.023741  0.0074    1.0792   
     4. B(H   4,C   2)                1.0770 -0.012961  0.0041    1.0811   
     5. B(H   5,C   2)                1.0543 -0.041895  0.0129    1.0672   
     6. B(O   6,C   0)                1.4000 -0.084031  0.0241    1.4241   
     7. B(C   7,O   6)                1.4466  0.010557 -0.0032    1.4435   
     8. B(H   8,C   7)                1.0718 -0.022064  0.0069    1.0787   
     9. B(H   9,C   7)                1.0770 -0.013522  0.0043    1.0813   
    10. B(H  10,C   7)                1.0543 -0.041627  0.0128    1.0671   
    11. B(H  11,C   0)                1.2042  0.051213 -0.0176    1.1866   
    12. B(H  12,C   0)                1.2042  0.050747 -0.0174    1.1867   
    13. A(O   6,C   0,H  11)           90.00 -0.172223    6.41     96.41   
    14. A(O   6,C   0,H  12)           90.00 -0.202483    7.47     97.47   
    15. A(O   1,C   0,H  11)           90.00 -0.201697    7.45     97.45   
    16. A(O   1,C   0,H  12)           90.00 -0.175836    6.53     96.53   
    17. A(H  11,C   0,H  12)           96.73 -0.007452    0.30     97.03   
    18. A(C   0,O   1,C   2)          118.94  0.011522   -0.39    118.55   
    19. A(H   4,C   2,H   5)          110.63  0.002338   -0.09    110.53   
    20. A(O   1,C   2,H   4)          116.70  0.034677   -1.23    115.46   
    21. A(H   3,C   2,H   5)          103.03 -0.010958    0.44    103.48   
    22. A(O   1,C   2,H   5)          106.10 -0.025206    0.89    106.99   
    23. A(H   3,C   2,H   4)          110.27 -0.002721    0.06    110.34   
    24. A(O   1,C   2,H   3)          109.17 -0.004409    0.15    109.33   
    25. A(C   0,O   6,C   7)          118.94  0.014143   -0.48    118.46   
    26. A(H   9,C   7,H  10)          110.63 -0.000107   -0.01    110.61   
    27. A(H   8,C   7,H  10)          103.03 -0.010846    0.43    103.46   
    28. A(O   6,C   7,H  10)          106.10 -0.009094    0.32    106.42   
    29. A(H   8,C   7,H   9)          110.27  0.001109   -0.06    110.22   
    30. A(O   6,C   7,H   9)          116.70  0.027188   -0.97    115.73   
    31. A(O   6,C   7,H   8)          109.17 -0.013338    0.47    109.65   
    32. D(C   2,O   1,C   0,H  12)   -138.37 -0.067331    2.42   -135.94   
    33. D(C   2,O   1,C   0,H  11)    -41.63 -0.074783    2.72    -38.91   
    34. D(H   3,C   2,O   1,C   0)     29.60 -0.016385    0.63     30.22   
    35. D(H   5,C   2,O   1,C   0)    -80.82  0.010155   -0.38    -81.20   
    36. D(H   4,C   2,O   1,C   0)    155.44  0.003510   -0.13    155.31   
    37. D(C   7,O   6,C   0,H  12)    -41.63 -0.075999    2.77    -38.86   
    38. D(C   7,O   6,C   0,H  11)   -138.37 -0.068547    2.48   -135.89   
    39. D(C   7,O   6,O   1,C   2)    180.00  0.169699   -6.40    173.60   
    40. D(H  10,C   7,O   6,C   0)     80.82 -0.010886    0.41     81.23   
    41. D(H   9,C   7,O   6,C   0)   -155.44  0.000289   -0.01   -155.45   
    42. D(H   8,C   7,O   6,C   0)    -29.60  0.011723   -0.45    -30.04   
    ----------------------------------------------------------------------------

Geometry step timings:
Preparation and reading OPT file:      0.005 s ( 3.169 %)
Internal coordinates            :      0.005 s ( 2.963 %)
B/P matrices and projection     :      0.008 s ( 5.184 %)
Hessian update/contruction      :      0.019 s (11.815 %)
Making the step                 :      0.014 s ( 8.576 %)
Converting the step to Cartesian:      0.006 s ( 3.593 %)
Storing new data                :      0.006 s ( 3.632 %)
Checking convergence            :      0.008 s ( 4.950 %)
Final printing                  :      0.089 s (56.115 %)
Total time                      :      0.159 s

Time for energy+gradient        :     11.802 s
Time for complete geometry iter :     12.588 s

         *************************************************************
         *                GEOMETRY OPTIMIZATION CYCLE   2            *
         *************************************************************
---------------------------------
CARTESIAN COORDINATES (ANGSTROEM)
---------------------------------
  C      0.002722   -0.001077    0.248466
  O      1.403759   -0.002241   -0.010332
  C      2.092157    1.263074   -0.084385
  H      1.598981    1.976077    0.558380
  H      3.150514    1.229858    0.133723
  H      1.923735    1.652868   -1.063496
  O     -1.397330    0.001321   -0.012151
  C     -2.086732   -1.265084   -0.079423
  H     -1.411241   -2.027242   -0.435003
  H     -2.998361   -1.272942   -0.660840
  H     -2.281517   -1.556373    0.928545
  H     -0.007557    0.886493    1.035931
  H      0.010872   -0.884732    1.040586

----------------------------
CARTESIAN COORDINATES (A.U.)
----------------------------
  NO LB      ZA    FRAG     MASS         X           Y           Z
   0 C     6.0000    0    12.011    0.005143   -0.002036    0.469532
   1 O     8.0000    0    15.999    2.652719   -0.004234   -0.019525
   2 C     6.0000    0    12.011    3.953603    2.386864   -0.159464
   3 H     1.0000    0     1.008    3.021636    3.734244    1.055185
   4 H     1.0000    0     1.008    5.953608    2.324094    0.252701
   5 H     1.0000    0     1.008    3.635332    3.123469   -2.009717
   6 O     8.0000    0    15.999   -2.640570    0.002496   -0.022963
   7 C     6.0000    0    12.011   -3.943352   -2.390662   -0.150087
   8 H     1.0000    0     1.008   -2.666860   -3.830932   -0.822037
   9 H     1.0000    0     1.008   -5.666082   -2.405511   -1.248806
  10 H     1.0000    0     1.008   -4.311442   -2.941119    1.754695
  11 H     1.0000    0     1.008   -0.014281    1.675229    1.957625
  12 H     1.0000    0     1.008    0.020545   -1.671902    1.966422

--------------------------------
INTERNAL COORDINATES (ANGSTROEM)
--------------------------------
 C      0   0   0     0.000000000000     0.00000000     0.00000000
 O      1   0   0     1.424739436605     0.00000000     0.00000000
 C      2   1   0     1.442358031114   118.55108962     0.00000000
 H      3   2   1     1.079232128895   109.32270266    30.22358199
 H      3   2   1     1.081107849930   115.46234930   155.31054588
 H      3   2   1     1.067223153672   106.98924768   278.79799753
 O      1   2   3     1.424103292302   158.98948412    92.21511448
 C      7   1   2     1.443461888205   118.46280865    92.83209832
 H      8   7   1     1.078707297184   109.64351215   329.95410592
 H      8   7   1     1.081284366923   115.72817345   204.55272711
 H      8   7   1     1.067140486295   106.41768426    81.23018830
 H      1   2   3     1.186586474269    97.45090167   321.32371554
 H      1   2   3     1.186746470581    96.53914385   223.80902574

---------------------------
INTERNAL COORDINATES (A.U.)
---------------------------
 C      0   0   0     0.000000000000     0.00000000     0.00000000
 O      1   0   0     2.692367347381     0.00000000     0.00000000
 C      2   1   0     2.725661665868   118.55108962     0.00000000
 H      3   2   1     2.039453158541   109.32270266    30.22358199
 H      3   2   1     2.042997757600   115.46234930   155.31054588
 H      3   2   1     2.016759484219   106.98924768   278.79799753
 O      1   2   3     2.691165208867   158.98948412    92.21511448
 C      7   1   2     2.727747653461   118.46280865    92.83209832
 H      8   7   1     2.038461370340   109.64351215   329.95410592
 H      8   7   1     2.043331326374   115.72817345   204.55272711
 H      8   7   1     2.016603265516   106.41768426    81.23018830
 H      1   2   3     2.242323470584    97.45090167   321.32371554
 H      1   2   3     2.242625819797    96.53914385   223.80902574



           ************************************************************
           *        Program running with 2 parallel MPI-processes     *
           *              working on a common directory               *
           ************************************************************
------------------------------------------------------------------------------
                   ___                                                        
                  /   \      - P O W E R E D   B Y -                         
                 /     \                                                     
                 |  |  |   _    _      __       _____    __    __             
                 |  |  |  | |  | |    /  \     |  _  \  |  |  /  |          
                  \  \/   | |  | |   /    \    | | | |  |  | /  /          
                 / \  \   | |__| |  /  /\  \   | |_| |  |  |/  /          
                |  |  |   |  __  | /  /__\  \  |    /   |      \           
                |  |  |   | |  | | |   __   |  |    \   |  |\   \          
                \     /   | |  | | |  |  |  |  | |\  \  |  | \   \       
                 \___/    |_|  |_| |__|  |__|  |_| \__\ |__|  \__/        
                                                                              
                      - O R C A' S   B I G   F R I E N D -                    
                                      &                                       
                       - I N T E G R A L  F E E D E R -                       
                                                                              
 v1 FN, 2020, v2 2021, v3 2022-2024                                           
------------------------------------------------------------------------------


----------------------
SHARK INTEGRAL PACKAGE
----------------------

Number of atoms                             ...     13
Number of basis functions                   ...     33
Number of shells                            ...     23
Maximum angular momentum                    ...      1
Integral batch strategy                     ... SHARK/LIBINT Hybrid
RI-J (if used) integral strategy            ... SPLIT-RIJ (Revised 2003 algorithm where possible)
Printlevel                                  ...      1
Contraction scheme used                     ... SEGMENTED contraction
Prescreening option                         ... SCHWARTZ
   Thresh                                   ... 2.500e-11
   Tcut                                     ... 2.500e-12
   Tpresel                                  ... 2.500e-12 
Coulomb Range Separation                    ... NOT USED
Exchange Range Separation                   ... NOT USED
Multipole approximations                    ... NOT USED
Finite Nucleus Model                        ... NOT USED
CABS basis                                  ... NOT available
Auxiliary Coulomb fitting basis             ... NOT available
Auxiliary J/K fitting basis                 ... NOT available
Auxiliary Correlation fitting basis         ... NOT available
Auxiliary 'external' fitting basis          ... NOT available

Checking pre-screening integrals            ... done (  0.0 sec) Dimension = 23
   => SHARK Basis and OBASIS are compatible. Storing Pre-screening
Shell pair information
Shell pair cut-off parameter TPreSel        ...   2.5e-12
Total number of shell pairs                 ...       276
Shell pairs after pre-screening             ...       268
Total number of primitive shell pairs       ...      2484
Primitive shell pairs kept                  ...      1801
          la=0 lb=0:    163 shell pairs
          la=1 lb=0:     90 shell pairs
          la=1 lb=1:     15 shell pairs

Checking whether 4 symmetric matrices of dimension 33 fit in memory
:Max Core in MB      =   1000.00
 MB in use           =      1.28
 MB left             =    998.72
 MB needed           =      0.02
 Data fit in memory  = YES
Calculating Nuclear repulsion               ... done (  0.0 sec) ENN=    186.121924966534 Eh
Entering conventional section               ... 
Calculating 4-index integrals               ...     -> SHARK/Ints2Disk: Thresh =     2.500000e-11 TCut=    2.500000e-12 
    -> calling libint FockFlag=2 Lmax_loc=1
    ->Total LIBINT loop time =    0.000 sec
    -> L=0 0 0 0:     0.019 sec done=     12313 (=100.0%) skipped=         0 
    -> L=1 0 0 0:     0.049 sec done=     14063 (=100.0%) skipped=         0 
    -> L=1 0 1 0:     0.010 sec done=      4030 (=100.0%) skipped=         0 
    -> L=1 1 0 0:     0.005 sec done=      2413 (=100.0%) skipped=         0 
    -> L=1 1 1 0:     0.007 sec done=      1348 (=100.0%) skipped=         0 
    -> L=1 1 1 1:     0.002 sec done=       120 (=100.0%) skipped=         0 
    ->Total SHARK integral loop time =    0.094 sec
    -> Total Integral generation matrix time =    0.307 sec
    -> Number of small integrals   =      9753
    -> Number of medium integrals  =     22625
    -> Number of large integrals   =    111130
    -> Number of MB stored         =         1 MB

done (  0.3 sec)
Leaving conventional section

Diagonalization of the overlap matrix:
Smallest eigenvalue                        ... 2.170e-01
Time for diagonalization                   ...    0.001 sec
Threshold for overlap eigenvalues          ... 1.000e-07
Number of eigenvalues below threshold      ... 0
Time for construction of square roots      ...    0.011 sec
Total time needed                          ...    0.106 sec

-------------------
DFT GRID GENERATION
-------------------

General Integration Accuracy     IntAcc      ... 4.388
Radial Grid Type                 RadialGrid  ... OptM3 with GC (2021)
Angular Grid (max. ang.)         AngularGrid ... 4 (Lebedev-302)
Angular grid pruning method      GridPruning ... 4 (adaptive)
Weight generation scheme         WeightScheme... mBecke (2022)
Basis function cutoff            BFCut       ... 1.0000e-11
Integration weight cutoff        WCut        ... 1.0000e-14
Partially contracted basis set               ... off
Rotationally invariant grid construction     ... off
Angular grids for H and He will be reduced by one unit

Total number of grid points                  ...    56316
Total number of batches                      ...      885
Average number of points per batch           ...       63
Average number of grid points per atom       ...     4332
Grids setup in   1.3 sec
Initializing property integral containers    ... done (  0.1 sec)

SHARK setup successfully completed in   2.1 seconds

Maximum memory used throughout the entire STARTUP-calculation: 30.0 MB


           ************************************************************
           *        Program running with 2 parallel MPI-processes     *
           *              working on a common directory               *
           ************************************************************
Occupation numbers will be reassigned to an Aufbau configuration
             **** ENERGY FILE WAS UPDATED (CH₂OMe₂.en.tmp) ****
Finished Guess after   0.5 sec
Maximum memory used throughout the entire GUESS-calculation: 2.6 MB


           ************************************************************
           *        Program running with 2 parallel MPI-processes     *
           *              working on a common directory               *
           ************************************************************

 InCore treatment chosen for four center integrals:
   Memory dedicated               ...    1000 MB
   Memory needed                  ...      0 MB
   Number of tiny    integrals    ...    9753
   Number of small   integrals    ...   22625
   Number of regular integrals    ...  111130

----------------------------------------D-I-I-S--------------------------------------------
Iteration    Energy (Eh)           Delta-E    RMSDP     MaxDP     DIISErr   Damp  Time(sec)
-------------------------------------------------------------------------------------------
    1    -265.9931511691701189     0.00e+00  4.73e-03  2.58e-02  5.25e-02  0.700   0.4
    2    -266.0009280554850193    -7.78e-03  4.59e-03  2.48e-02  4.35e-02  0.700   0.4
                               ***Turning on AO-DIIS***
    3    -266.0077829146439399    -6.85e-03  5.15e-03  2.76e-02  3.50e-02  0.700   0.4
    4    -266.0134930278064758    -5.71e-03  1.50e-02  7.84e-02  2.74e-02  0.000   0.3
    5    -266.0330374831825111    -1.95e-02  2.35e-03  1.32e-02  5.72e-03  0.000   0.4
                              *** Initializing SOSCF ***
---------------------------------------S-O-S-C-F--------------------------------------
Iteration    Energy (Eh)           Delta-E    RMSDP     MaxDP     MaxGrad    Time(sec)
--------------------------------------------------------------------------------------
    6    -266.0334458771827713    -4.08e-04  1.79e-03  9.96e-03  3.23e-03     0.5
    7    -266.0336003492358259    -1.54e-04  6.19e-04  3.21e-03  2.02e-03     0.3
    8    -266.0336247304659310    -2.44e-05  7.56e-04  3.83e-03  1.08e-03     0.4
    9    -266.0336353410508536    -1.06e-05  3.12e-05  2.02e-04  5.81e-05     0.3
   10    -266.0336353958239215    -5.48e-08  1.03e-05  5.48e-05  2.21e-05     0.3
   11    -266.0336354018602378    -6.04e-09  1.70e-06  7.10e-06  2.62e-06     0.3
                 **** Energy Check signals convergence ****

               *****************************************************
               *                     SUCCESS                       *
               *           SCF CONVERGED AFTER  11 CYCLES          *
               *****************************************************

             **** ENERGY FILE WAS UPDATED (CH₂OMe₂.en.tmp) ****

----------------
TOTAL SCF ENERGY
----------------

Total Energy       :       -266.03363540200439 Eh           -7239.14325 eV

Components:
Nuclear Repulsion  :        186.12192496653395 Eh            5064.63506 eV
Electronic Energy  :       -452.15556036853832 Eh          -12303.77831 eV
One Electron Energy:       -732.79245781746738 Eh          -19940.29652 eV
Two Electron Energy:        280.63689744892906 Eh            7636.51821 eV

Virial components:
Potential Energy   :       -532.14868799347619 Eh          -14480.50197 eV
Kinetic Energy     :        266.11505259147185 Eh            7241.35872 eV
Virial Ratio       :          1.99969405267130

---------------
SCF CONVERGENCE
---------------

  Last Energy change         ...    6.0363e-09  Tolerance :   1.0000e-08
  Last MAX-Density change    ...    7.0965e-06  Tolerance :   1.0000e-07
  Last RMS-Density change    ...    1.6961e-06  Tolerance :   5.0000e-09
  Last DIIS Error            ...    3.2273e-03  Tolerance :   5.0000e-07
  Last Orbital Gradient      ...    2.6209e-06  Tolerance :   1.0000e-05
  Last Orbital Rotation      ...    3.4076e-06  Tolerance :   1.0000e-05


Total SCF time: 0 days 0 hours 0 min 4 sec 
Finished LeanSCF after   5.2 sec

Maximum memory used throughout the entire LEANSCF-calculation: 52.4 MB


           ************************************************************
           *        Program running with 2 parallel MPI-processes     *
           *              working on a common directory               *
           ************************************************************

------------------------------------------------------------------------------
                         ORCA PROPERTY INTEGRAL CALCULATIONS
------------------------------------------------------------------------------

GBWName                                   ... CH₂OMe₂.gbw
Number of atoms                           ...     13
Number of basis functions                 ...     33
Max core memory                           ...   1000 MB

Dipole integrals                          ... YES
Quadrupole integrals                      ...  NO
Linear momentum integrals                 ...  NO
Angular momentum integrals                ...  NO
Higher moments length integrals           ...  NO
Higher moments velocity integrals         ...  NO
Kinetic energy integrals                  ...  NO
GIAO right hand sides                     ...  NO
GIAO dipole derivative integrals          ...  NO
SOC integrals                             ...  NO
EPR diamagnetic integrals (GIAO)          ...  NO
EPR gauge integrals                       ...  NO
Field gradient integrals                  ...  NO (   0 nuclei)
Spin-dipole/Fermi contact integrals       ...  NO (   0 nuclei)
Contact density integrals                 ...  NO (   0 nuclei)
Nucleus-orbit integrals                   ...  NO (   0 nuclei)
Geometric perturbations                   ...  NO (  13 nuclei)

Choice of electric origin   ... Center of mass
Position of electric origin ... (  0.0046, -0.0012,  0.0548) 
Choice of magnetic origin   ... GIAO
Position of magnetic origin ... (  0.0000,  0.0000,  0.0000) 

Calculating integrals                     ... Electric Dipole (Length)     done (  0.1 sec)

Property integrals calculated in   0.1 sec

Maximum memory used throughout the entire PROPINT-calculation: 2.8 MB


-------------------------------------------------------------------------------
                          DFT DISPERSION CORRECTION                            
                                                                               
                              DFTD3 V3.1  Rev 1                                
                          USING Becke-Johnson damping                          
[...]
   Tpresel                                  ... 2.500e-12 
Coulomb Range Separation                    ... NOT USED
Exchange Range Separation                   ... NOT USED
Multipole approximations                    ... NOT USED
Finite Nucleus Model                        ... NOT USED
CABS basis                                  ... NOT available
Auxiliary Coulomb fitting basis             ... NOT available
Auxiliary J/K fitting basis                 ... NOT available
Auxiliary Correlation fitting basis         ... NOT available
Auxiliary 'external' fitting basis          ... NOT available

Checking pre-screening integrals            ... done (  0.0 sec) Dimension = 23
   => SHARK Basis and OBASIS are compatible. Storing Pre-screening
Shell pair information
Shell pair cut-off parameter TPreSel        ...   2.5e-12
Total number of shell pairs                 ...       276
Shell pairs after pre-screening             ...       270
Total number of primitive shell pairs       ...      2484
Primitive shell pairs kept                  ...      1899
          la=0 lb=0:    165 shell pairs
          la=1 lb=0:     90 shell pairs
          la=1 lb=1:     15 shell pairs

Checking whether 4 symmetric matrices of dimension 33 fit in memory
:Max Core in MB      =   1000.00
 MB in use           =      1.29
 MB left             =    998.71
 MB needed           =      0.02
 Data fit in memory  = YES
Calculating Nuclear repulsion               ... done (  0.0 sec) ENN=    197.455817101576 Eh
Entering conventional section               ... 
Calculating 4-index integrals               ...     -> SHARK/Ints2Disk: Thresh =     2.500000e-11 TCut=    2.500000e-12 
    -> calling libint FockFlag=2 Lmax_loc=1
    ->Total LIBINT loop time =    0.000 sec
    -> L=0 0 0 0:     0.017 sec done=     13241 (=100.0%) skipped=         0 
    -> L=1 0 0 0:     0.039 sec done=     14692 (=100.0%) skipped=         0 
    -> L=1 0 1 0:     0.016 sec done=      4095 (=100.0%) skipped=         0 
    -> L=1 1 0 0:     0.008 sec done=      2463 (=100.0%) skipped=         0 
    -> L=1 1 1 0:     0.010 sec done=      1350 (=100.0%) skipped=         0 
    -> L=1 1 1 1:     0.002 sec done=       120 (=100.0%) skipped=         0 
    ->Total SHARK integral loop time =    0.099 sec
    -> Total Integral generation matrix time =    0.264 sec
    -> Number of small integrals   =      2155
    -> Number of medium integrals  =     10524
    -> Number of large integrals   =    139037
    -> Number of MB stored         =         1 MB

done (  0.3 sec)
Leaving conventional section

Diagonalization of the overlap matrix:
Smallest eigenvalue                        ... 2.269e-01
Time for diagonalization                   ...    0.001 sec
Threshold for overlap eigenvalues          ... 1.000e-07
Number of eigenvalues below threshold      ... 0
Time for construction of square roots      ...    0.011 sec
Total time needed                          ...    0.076 sec

-------------------
DFT GRID GENERATION
-------------------

General Integration Accuracy     IntAcc      ... 4.388
Radial Grid Type                 RadialGrid  ... OptM3 with GC (2021)
Angular Grid (max. ang.)         AngularGrid ... 4 (Lebedev-302)
Angular grid pruning method      GridPruning ... 4 (adaptive)
Weight generation scheme         WeightScheme... mBecke (2022)
Basis function cutoff            BFCut       ... 1.0000e-11
Integration weight cutoff        WCut        ... 1.0000e-14
Partially contracted basis set               ... off
Rotationally invariant grid construction     ... off
Angular grids for H and He will be reduced by one unit

Total number of grid points                  ...    56268
Total number of batches                      ...      887
Average number of points per batch           ...       63
Average number of grid points per atom       ...     4328
Grids setup in   1.1 sec
Initializing property integral containers    ... done (  0.1 sec)

SHARK setup successfully completed in   2.3 seconds

Maximum memory used throughout the entire STARTUP-calculation: 30.0 MB


           ************************************************************
           *        Program running with 2 parallel MPI-processes     *
           *              working on a common directory               *
           ************************************************************
Occupation numbers will be reassigned to an Aufbau configuration
             **** ENERGY FILE WAS UPDATED (CH₂OMe₂.en.tmp) ****
Finished Guess after   0.5 sec
Maximum memory used throughout the entire GUESS-calculation: 2.7 MB


           ************************************************************
           *        Program running with 2 parallel MPI-processes     *
           *              working on a common directory               *
           ************************************************************

 InCore treatment chosen for four center integrals:
   Memory dedicated               ...    1000 MB
   Memory needed                  ...      0 MB
   Number of tiny    integrals    ...    2155
   Number of small   integrals    ...   10524
   Number of regular integrals    ...  139037

----------------------------------------D-I-I-S--------------------------------------------
Iteration    Energy (Eh)           Delta-E    RMSDP     MaxDP     DIISErr   Damp  Time(sec)
-------------------------------------------------------------------------------------------
    1    -266.1495731067203678     0.00e+00  2.20e-03  1.11e-02  3.31e-02  0.700   0.4
    2    -266.1515436012623468    -1.97e-03  2.12e-03  1.05e-02  2.75e-02  0.700   0.4
                               ***Turning on AO-DIIS***
    3    -266.1532545655632020    -1.71e-03  2.33e-03  1.11e-02  2.21e-02  0.700   0.4
    4    -266.1546468527031948    -1.39e-03  6.53e-03  2.99e-02  1.64e-02  0.000   0.4
                              *** Initializing SOSCF ***
---------------------------------------S-O-S-C-F--------------------------------------
Iteration    Energy (Eh)           Delta-E    RMSDP     MaxDP     MaxGrad    Time(sec)
--------------------------------------------------------------------------------------
    5    -266.1591371693795054    -4.49e-03  5.94e-04  2.44e-03  1.24e-03     0.5
    6    -266.1591621831463499    -2.50e-05  2.51e-04  1.13e-03  4.62e-04     0.3
    7    -266.1591665632726063    -4.38e-06  2.29e-04  1.07e-03  2.25e-04     0.4
    8    -266.1591678492305846    -1.29e-06  5.41e-06  2.01e-05  1.33e-05     0.4
    9    -266.1591678515799231    -2.35e-09  2.74e-06  1.28e-05  4.54e-06     0.3
                 **** Energy Check signals convergence ****

               *****************************************************
               *                     SUCCESS                       *
               *           SCF CONVERGED AFTER   9 CYCLES          *
               *****************************************************

             **** ENERGY FILE WAS UPDATED (CH₂OMe₂.en.tmp) ****

----------------
TOTAL SCF ENERGY
----------------

Total Energy       :       -266.15916785189279 Eh           -7242.55916 eV

Components:
Nuclear Repulsion  :        197.45581710157583 Eh            5373.04594 eV
Electronic Energy  :       -463.61498495346865 Eh          -12615.60511 eV
One Electron Energy:       -755.51541150169464 Eh          -20558.61953 eV
Two Electron Energy:        291.90042654822599 Eh            7943.01442 eV

Virial components:
Potential Energy   :       -532.21354161857175 Eh          -14482.26673 eV
Kinetic Energy     :        266.05437376667902 Eh            7239.70757 eV
Virial Ratio       :          2.00039388221186

---------------
SCF CONVERGENCE
---------------

  Last Energy change         ...    2.3493e-09  Tolerance :   1.0000e-08
  Last MAX-Density change    ...    1.2803e-05  Tolerance :   1.0000e-07
  Last RMS-Density change    ...    2.7379e-06  Tolerance :   5.0000e-09
  Last DIIS Error            ...    1.2374e-03  Tolerance :   5.0000e-07
  Last Orbital Gradient      ...    4.5439e-06  Tolerance :   1.0000e-05
  Last Orbital Rotation      ...    6.3540e-06  Tolerance :   1.0000e-05


Total SCF time: 0 days 0 hours 0 min 4 sec 
Finished LeanSCF after   4.5 sec

Maximum memory used throughout the entire LEANSCF-calculation: 52.8 MB


           ************************************************************
           *        Program running with 2 parallel MPI-processes     *
           *              working on a common directory               *
           ************************************************************

------------------------------------------------------------------------------
                         ORCA PROPERTY INTEGRAL CALCULATIONS
------------------------------------------------------------------------------

GBWName                                   ... CH₂OMe₂.gbw
Number of atoms                           ...     13
Number of basis functions                 ...     33
Max core memory                           ...   1000 MB

Dipole integrals                          ... YES
Quadrupole integrals                      ...  NO
Linear momentum integrals                 ...  NO
Angular momentum integrals                ...  NO
Higher moments length integrals           ...  NO
Higher moments velocity integrals         ...  NO
Kinetic energy integrals                  ...  NO
GIAO right hand sides                     ...  NO
GIAO dipole derivative integrals          ...  NO
SOC integrals                             ...  NO
EPR diamagnetic integrals (GIAO)          ...  NO
EPR gauge integrals                       ...  NO
Field gradient integrals                  ...  NO (   0 nuclei)
Spin-dipole/Fermi contact integrals       ...  NO (   0 nuclei)
Contact density integrals                 ...  NO (   0 nuclei)
Nucleus-orbit integrals                   ...  NO (   0 nuclei)
Geometric perturbations                   ...  NO (  13 nuclei)

Choice of electric origin   ... Center of mass
Position of electric origin ... ( -0.0218,  0.0246,  0.5152) 
Choice of magnetic origin   ... GIAO
Position of magnetic origin ... (  0.0000,  0.0000,  0.0000) 

Calculating integrals                     ... Electric Dipole (Length)     done (  0.1 sec)

Property integrals calculated in   0.1 sec

Maximum memory used throughout the entire PROPINT-calculation: 2.8 MB


-------------------------------------------------------------------------------
                          DFT DISPERSION CORRECTION                            
                                                                               
                              DFTD3 V3.1  Rev 1                                
                          USING Becke-Johnson damping                          
-------------------------------------------------------------------------------
-------------------------   ----------------
Dispersion correction           -0.038559189
-------------------------   ----------------

------------------   -----------------
gCP+bas correction        -0.042140392
------------------   -----------------
----------------------------   ----------------
Total correction to HF/MINIX       -0.080699581
----------------------------   ----------------


-------------------------   --------------------
FINAL SINGLE POINT ENERGY      -266.239867433245
-------------------------   --------------------



           ************************************************************
           *        Program running with 2 parallel MPI-processes     *
           *              working on a common directory               *
           ************************************************************
------------------------------------------------------------------------------
                         ORCA SCF GRADIENT CALCULATION
------------------------------------------------------------------------------

Nuc. rep. gradient        (SHARK) ... done (  0.0 sec)
HCore & Overlap gradient  (SHARK) ... done (  0.0 sec)
Two-electron gradient     (SHARK) ... done (  0.2 sec)
Dispersion correction             ... done (  0.1 sec)

-------------------
DISPERSION GRADIENT
-------------------

   1   C   :   -0.000130242    0.000162794    0.001869785
   2   O   :    0.001454132   -0.000527552    0.000540041
   3   C   :    0.001498861    0.000641200   -0.000871728
   4   H   :    0.000606205    0.000951643   -0.000190145
   5   H   :    0.000681312    0.000015830   -0.000338935
   6   H   :    0.000373112    0.000575905   -0.001073524
   7   O   :   -0.001498950    0.000619294    0.000228192
   8   C   :   -0.001381426   -0.000791384   -0.000926671
   9   H   :   -0.000219703   -0.000941005   -0.000950663
  10   H   :   -0.000569560   -0.000052808   -0.000515937
  11   H   :   -0.000660418   -0.000839927   -0.000043827
  12   H   :   -0.000347731    0.000573951    0.001077456
  13   H   :    0.000194406   -0.000387940    0.001195956

Difference to translation invariance:
           :    0.0000000000   -0.0000000000    0.0000000000

Difference to rotation invariance:
           :    0.0000000000   -0.0000000000   -0.0000000000

Norm of the Dispersion gradient    ...    0.0051023183
RMS gradient                       ...    0.0008170248
MAX gradient                       ...    0.0018697847
gCP correction                   ... done

------------------
CARTESIAN GRADIENT
------------------

   1   C   :    0.001055659   -0.000126767    0.001316063
   2   O   :   -0.002122089    0.000969946   -0.000818462
   3   C   :   -0.000739213   -0.000476026    0.000485019
   4   H   :    0.000659167   -0.000321053   -0.000061798
   5   H   :    0.000195626    0.000105345    0.000084044
   6   H   :    0.001112259   -0.000720405   -0.000197021
   7   O   :    0.000309207   -0.000802546    0.000065428
   8   C   :    0.000535053   -0.000304342    0.001446573
   9   H   :   -0.000265472    0.000633040   -0.000762115
  10   H   :    0.000047305   -0.000036010   -0.000261449
  11   H   :   -0.001033903    0.001053136   -0.000645713
  12   H   :   -0.002595360    0.003035157   -0.000802513
  13   H   :    0.002841760   -0.003009475    0.000151945

Difference to translation invariance:
           :    0.0000000000   -0.0000000000   -0.0000000000

Difference to rotation invariance:
           :    0.0000003291   -0.0000004251   -0.0000001314

Norm of the Cartesian gradient     ...    0.0072842000
RMS gradient                       ...    0.0011664055
MAX gradient                       ...    0.0030351572

-------
TIMINGS
-------

Total SCF gradient time     ....        0.337 sec

Densities                   ....       0.000 sec  (  0.0%)
One electron gradient       ....       0.020 sec  (  5.8%)
Two electron gradient       ....       0.201 sec  ( 59.6%)

Maximum memory used throughout the entire SCFGRAD-calculation: 23.4 MB
------------------------------------------------------------------------------
                         ORCA GEOMETRY RELAXATION STEP
------------------------------------------------------------------------------

Reading the OPT-File                    .... done
Getting information on internals        .... done
Copying old internal coords+grads       .... done
Making the new internal coordinates     .... (2022 redundants) done
Validating the new internal coordinates .... (2022 redundants) done
Calculating the B-matrix                .... done
Calculating the G,G- and P matrices     .... done
Transforming gradient to internals      .... done
Projecting the internal gradient        .... done
Number of atoms                         ....  13
Number of internal coordinates          ....  42
Current Energy                          ....  -266.239867433 Eh
Current gradient norm                   ....     0.007284200 Eh/bohr
Maximum allowed component of the step   ....  0.300
Current trust radius                    ....  0.467
Updating the Hessian (BFGS)             .... done
Forming the augmented Hessian           .... done
Diagonalizing the augmented Hessian     .... done
Last element of RFO vector              ....  0.992374390
Lowest eigenvalues of augmented Hessian:
 -0.000444850  0.007223371  0.016273086  0.017455600  0.023170154
Length of the computed step             ....  0.124207331
The final length of the internal step   ....  0.124207331
Converting the step to Cartesian space:
 Initial RMS(Int)=    0.0191656073
Transforming coordinates:
 Iter   0:  RMS(Cart)=    0.0357998996 RMS(Int)=    0.0191055579
done
Storing new coordinates                 .... done
The predicted energy change is          ....    -0.000225856
Previously predicted energy change      ....    -0.000731548
Actually observed energy change         ....    -0.000767230
Ratio of predicted to observed change   ....     1.048776062
New trust radius                        ....     0.700000000

                                .--------------------.
          ----------------------|Geometry convergence|-------------------------
          Item                value                   Tolerance       Converged
          ---------------------------------------------------------------------
          Energy change      -0.0007672303            0.0000050000      NO
          RMS gradient        0.0016692030            0.0001000000      NO
          MAX gradient        0.0048592607            0.0003000000      NO
          RMS step            0.0191656073            0.0020000000      NO
          MAX step            0.0574844858            0.0040000000      NO
          -------------------------------------------------------------------------
          ........................................................
          Max(Bonds)      0.0020      Max(Angles)    0.70
          Max(Dihed)        3.29      Max(Improp)    0.00
          ---------------------------------------------------------------------

The optimization has not yet converged - more geometry cycles are needed


    ---------------------------------------------------------------------------
                         Redundant Internal Coordinates
                            (Angstroem and degrees)

        Definition                    Value    dE/dq     Step     New-Value
    ----------------------------------------------------------------------------
     1. B(O   1,C   0)                1.4134 -0.000435 -0.0002    1.4132   
     2. B(C   2,O   1)                1.4200 -0.000846  0.0014    1.4214   
     3. B(H   3,C   2)                1.0964 -0.000283  0.0003    1.0967   
     4. B(H   4,C   2)                1.0944  0.000127 -0.0005    1.0939   
     5. B(H   5,C   2)                1.0962 -0.000568  0.0005    1.0967   
     6. B(O   6,C   0)                1.4159  0.000461 -0.0017    1.4142   
     7. B(C   7,O   6)                1.4208 -0.000836  0.0013    1.4221   
     8. B(H   8,C   7)                1.0965 -0.000040 -0.0001    1.0964   
     9. B(H   9,C   7)                1.0942  0.000129 -0.0004    1.0938   
    10. B(H  10,C   7)                1.0960 -0.000791  0.0009    1.0969   
    11. B(H  11,C   0)                1.1077  0.002156 -0.0020    1.1057   
    12. B(H  12,C   0)                1.1077  0.002114 -0.0020    1.1057   
    13. A(O   6,C   0,H  11)          104.80 -0.004710    0.58    105.38   
    14. A(O   6,C   0,H  12)          112.38  0.000943   -0.38    112.00   
    15. A(O   1,C   0,H  11)          112.18  0.000739   -0.37    111.80   
    16. A(O   1,C   0,H  12)          104.87 -0.004859    0.64    105.52   
    17. A(H  11,C   0,H  12)          110.10  0.001939   -0.59    109.51   
    18. A(C   0,O   1,C   2)          115.40  0.004330   -0.70    114.70   
    19. A(H   4,C   2,H   5)          108.48 -0.000612    0.23    108.71   
    20. A(O   1,C   2,H   4)          107.34 -0.000500    0.31    107.65   
    21. A(H   3,C   2,H   5)          108.57  0.000720   -0.43    108.15   
    22. A(O   1,C   2,H   5)          112.06  0.000445   -0.16    111.90   
    23. A(H   3,C   2,H   4)          108