
                                 *****************
                                 * O   R   C   A *
                                 *****************

                                            #,                                       
                                            ###                                      
                                            ####                                     
                                            #####                                    
                                            ######                                   
                                           ########,                                 
                                     ,,################,,,,,                         
                               ,,#################################,,                 
                          ,,##########################################,,             
                       ,#########################################, ''#####,          
                    ,#############################################,,   '####,        
                  ,##################################################,,,,####,       
                ,###########''''           ''''###############################       
              ,#####''   ,,,,##########,,,,          '''####'''          '####       
            ,##' ,,,,###########################,,,                        '##       
           ' ,,###''''                  '''############,,,                           
         ,,##''                                '''############,,,,        ,,,,,,###''
      ,#''                                            '''#######################'''  
     '                                                          ''''####''''         
             ,#######,   #######,   ,#######,      ##                                
            ,#'     '#,  ##    ##  ,#'     '#,    #''#        ,####,    ,#,          
            ##       ##  ##   ,#'  ##            #'  '#       #'       ,# #          
            ##       ##  #######   ##           ,######,      #####,      #          
            '#,     ,#'  ##    ##  '#,     ,#' ,#      #,     #,   #      #          
             '#######'   ##     ##  '#######'  #'      '#     '####' #    #          



                #########################################################
                #                        -***-                          #
                #          Department of theory and spectroscopy        #
                #                                                       #
                #                      Frank Neese                      #
                #                                                       #
                #     Directorship, Architecture, Infrastructure        #
                #                    SHARK, DRIVERS                     #
                #        Core code/Algorithms in most modules           #
                #                                                       #
                #        Max Planck Institute fuer Kohlenforschung      #
                #                Kaiser Wilhelm Platz 1                 #
                #                 D-45470 Muelheim/Ruhr                 #
                #                      Germany                          #
                #                                                       #
                #                  All rights reserved                  #
                #                        -***-                          #
                #########################################################


                         Program Version 6.1.0  -  RELEASE   -
                                (GIT: $679e74b$)
                          ($2025-06-10 18:02:51 +0200$)


 With contributions from (in alphabetic order):
[Max-Planck-Institut fuer Kohlenforschung]                               
  Daniel Aravena         : Magnetic Suceptibility                        
  Michael Atanasov       : Ab Initio Ligand Field Theory (pilot matlab implementation)
  Alexander A. Auer      : GIAO ZORA, VPT2 properties, NMR spectrum      
  Ute Becker             : All parallelization in ORCA, NUMFREQ, NUMCALC 
  Giovanni Bistoni       : ED, misc. LED, open-shell LED, HFLD           
  Dmytro Bykov           : pre 5.0 version of the SCF Hessian            
  Marcos Casanova-Páez   : Triplet and SCS-CIS(D). UHF-(DLPNO)-IP/EA/STEOM-CCSD. UHF-CVS-IP/STEOM-CCSD   
  Vijay G. Chilkuri      : MRCI spin determinant printing, contributions to CSF-ICE 
  Pauline Colinet        : FMM embedding                                 
  Dipayan Datta          : RHF DLPNO-CCSD density                        
  Achintya Kumar Dutta   : EOM-CC, STEOM-CC                              
  Nicolas Foglia         : Exact transition moments, OPA infrastructure, MCD improvements    
  Dmitry Ganyushin       : Spin-Orbit,Spin-Spin,Magnetic field MRCI      
  Miquel Garcia-Rates    : C-PCM and meta-GGA Hessian, CCSD/C-PCM, Gaussian charge scheme 
  Tiago L. C. Gouveia    : GS-ROHF, GS-ROCIS                             
  Yang Guo               : DLPNO-NEVPT2, F12-NEVPT2, CIM, IAO-localization        
  Andreas Hansen         : Spin unrestricted coupled pair/coupled cluster methods 
  Ingolf Harden          : AUTO-CI MPn and infrastructure                
  Benjamin Helmich-Paris : MC-RPA, TRAH-(SCF,CASSCF), AVAS, COSX integrals, SCF dyn. polar., MC-PDFT, srDFT 
  Lee Huntington         : MR-EOM, pCC                                   
  Robert Izsak           : Overlap fitted RIJCOSX, COSX-SCS-MP3, EOM     
  Riya Kayal             : Wick's Theorem for AUTO-CI, AUTO-CI UHF-CCSDT 
  Emily Kempfer          : AUTO-CI RHF CISDT and CCSDT, approximate NEVPT4
  Christian Kollmar      : KDIIS, OOCD, Brueckner-CCSD(T), CCSD density, CASPT2, CASPT2-K, improved NEVPT2 
  Axel Koslowski         : Symmetry handling                             
  Simone Kossmann        : meta-GGA functionals, TD-DFT gradient, OOMP2, (MP2 Hessian; deprecated post 5.0) 
  Lucas Lang             : DCDCAS, Hyperfine gauge corrections, ICE-SOC+SSC
  Marvin Lechner         : AUTO-CI (C++ implementation), FIC-MRCC        
  Spencer Leger          : CASSCF response                               
  Dagmar Lenk            : GEPOL surface, SMD, ORCA-2-JSON               
  Dimitrios Liakos       : Extrapolation schemes; Compound Job, Property file
  Dimitrios Manganas     : Further ROCIS development; embedding schemes. LFT, Crystal Embedding 
  Dimitrios Pantazis     : SARC Basis sets                               
  Anastasios Papadopoulos: AUTO-CI, single reference methods and gradients 
  Taras Petrenko         : pre 6.0 DFT Hessian and TD-DFT gradient,  ECA, NRVS 
  Petra Pikulova         : Analytic Raman intensities                    
  Peter Pinski           : DLPNO-MP2, DLPNO-MP2 Gradient                 
  Shashank Vittal Rao    : ES-AILFT, MagRelax                            
  Christoph Reimann      : Effective Core Potentials                     
  Marius Retegan         : Local ZFS, SOC                                
  Christoph Riplinger    : Optimizer, TS searches, QM/MM, DLPNO-CCSD(T), (RO)-DLPNO pert. Triples 
  Michael Roemelt        : Original ROCIS implementation, recursive CI coupling coefficients
  Masaaki Saitow         : Open-shell DLPNO-CCSD energy and density      
  Barbara Sandhoefer     : DKH picture change effects                    
  Yorick L. A. Schmerwitz: GMF and freeze-and-release deltaSCF, NEB S-IDPP initial path                    
  Kantharuban Sivalingam : CASSCF convergence/infrastructure, NEVPT2, NEVPT3, NEVPT4(SD), FIC-MRCI and CEPA variants
  Bernardo de Souza      : ESD, SOC TD-DFT                               
  Georgi L. Stoychev     : AutoAux, RI-MP2 NMR, DLPNO-MP2 response, X2C  
  Van Anh Tran           : RI-MP2 g-tensors                              
  Willem Van den Heuvel  : Paramagnetic NMR                              
  Zikuan Wang            : NOTCH, Electric field optimization            
  Frank Wennmohs         : Technical directorship and infrastructure     
  Hang Xu                : AUTO-CI-Response properties                   
                                                                         
[FACCTs GmbH]                                                            
  Markus Bursch, Nicolas Foglia, Miquel Garcia-Rates, Ingolf Harden, Hagen Neugebauer, Anastasios Papadopoulos, 
  Christoph Riplinger, Bernardo de Souza, Georgi L. Stoychev                                                    
                                                                 
  APM, various basis sets, CI-OPT, improved COSX, DLPNO-Multilevel,           
  DOCKER, DRACO, updates on ESD, Fragmentator, GOAT, IRC, LR-CPCM, L-BFGS, MBIS, meta-GGA TD-DFT gradient, ML-optimized integration grids, 
  MM, NACMEs, nearIR, NEB, NEB-TS, NL-DFT gradient (VV10), 2- and 3-layer-ONIOM, interface openCOSMO-RS, QMMM,   
  Crystal-QMMM, RESP, rigid body optimization, SF, symmetry and pop. for TD-DFT, various functionals, SOLVATOR                                   
                                                                         
[Other institutions]                                                     
  V. Asgeirsson          : NEB                                           
  Christoph Bannwarth    : sTDA-DFT, sTD-DFT, PBEh-3c, B97-3c, D3        
  Giovanni Bistoni       : ETS/NOCV, ADLD/ADEX, COVALED                  
  Martin Brehm           : Molecular dynamics                            
  Ronald Cardenas        : ETS/NOCV                                      
  Martina Colucci        : COVALED                                       
  Sebastian Ehlert       : rSCAN, r2SCAN, r2SCAN-3c, D4, dhf basis sets  
  Marvin Friede          : D4 for Fr, Ra, Ac-Lr                          
  Lars Goerigk           : TD-DFT with DH, B97 family of functionals     
  Stefan Grimme          : VdW corrections, initial TS optimization, DFT functionals, gCP, sTDA/sTD-DF 
  Waldemar Hujo          : DFT-NL                                        
  H. Jonsson             : NEB                                           
  Holger Kruse           : gCP                                           
  Marcel Mueller         : wB97X-3c, vDZP basis set                      
  Hagen Neugebauer       : wr2SCAN, Native XTB                           
  Gianluca Regni         : ADLD/ADEX                                     
  Tobias Risthaus        : pre 6.0 range-separated hybrid DFT and stability analysis
  Lukas Wittmann         : regularized MP2, r2SCAN double-hybrids, wr2SCAN        
                                                                         
We gratefully acknowledge several colleagues who have allowed us to      
interface, adapt or use parts of their codes:                            
  Ed Valeev, F. Pavosevic, A. Kumar             : LibInt (2-el integral package), F12 methods 
  Garnet Chan, S. Sharma, J. Yang, R. Olivares  : DMRG                   
  Ulf Ekstrom                                   : XCFun DFT Library      
  Mihaly Kallay                                 : mrcc  (arbitrary order and MRCC methods)
  Frank Weinhold                                : gennbo (NPA and NBO analysis)           
  Simon Mueller                                 : openCOSMO-RS                            
  Christopher J. Cramer and Donald G. Truhlar   : smd solvation model                     
  S Lehtola, MJT Oliveira, MAL Marques          : LibXC Library                           
  Liviu Ungur et al                             : ANISO software                          


 Your calculation uses the libint2 library for the computation of 2-el integrals
 For citations please refer to: http://libint.valeyev.net

 Your ORCA version has been built with support for libXC version: 7.0.0
 For citations please refer to: https://libxc.gitlab.io

 This ORCA versions uses:
   CBLAS   interface :  Fast vector & matrix operations
   LAPACKE interface :  Fast linear algebra routines
   SCALAPACK package :  Parallel linear algebra routines
   Shared memory     :  Shared parallel matrices
   BLAS/LAPACK       :  OpenBLAS 0.3.29  USE64BITINT DYNAMIC_ARCH NO_AFFINITY Zen SINGLE_THREADED
        Core in use  :  Zen
   Copyright (c) 2011-2014, The OpenBLAS Project


  ***********************************
  * Starting time: Thu Nov 27 22:56:39 2025
  * Host name:     vbox
  * Process ID:    5718
  * Working dir.:  /media/sf___/Formaldehyde_Project/tests
  ***********************************

NOTE: MaxCore=1000 MB was set to SCF,MP2,MDCI,CIPSI,MRCI,RASCI and CIS
      => If you want to overwrite this, your respective input block should be placed after the MaxCore statement
Your calculation utilizes the geometrical counterpoise correction gCP
Please cite in your paper:
H.Kruse, S. Grimme J.Chem.Phys., 136, (2012), 154101 
   

Your calculation utilizes the atom-pairwise dispersion correction
with the Becke-Johnson damping scheme (D3BJ)


================================================================================

----- Orbital basis set information -----
Your calculation utilizes the basis: MINIX,
   a combination of small basis sets by S. Grimme (see manual for definitions).

================================================================================
                                        WARNINGS
                       Please study these warnings very carefully!
================================================================================


WARNING: Geometry Optimization
  ===> : Switching off AutoStart
         For restart on a previous wavefunction, please use MOREAD

================================================================================
                                       INPUT FILE
================================================================================
NAME = CH₃OH.inp
|  1> ! HF-3c OPT FREQ
|  2> %freq
|  3> Temp 300,400,500,600
|  4> end
|  5> %pal nprocs 2 end
|  6> %maxcore 1000
|  7> 
|  8> * xyz 0 1
|  9> C    0.00000000  0.00000000  0.00000000
| 10> O    1.42800000  0.00000000  0.00000000
| 11> H   -0.54300000  0.95500000  0.00000000
| 12> H   -0.54300000 -0.47700000  0.82500000
| 13> H   -0.54300000 -0.47700000 -0.82500000
| 14> H    1.86100000  0.00000000  0.90000000
| 15> *
| 16> 
| 17>                          ****END OF INPUT****
================================================================================

                       *****************************
                       * Geometry Optimization Run *
                       *****************************

Geometry optimization settings:
Update method            Update   .... BFGS
Choice of coordinates    CoordSys .... (2022) Redundant Internals
Initial Hessian          InHess   .... Almloef's Model
Max. no of cycles        MaxIter  .... 50

Convergence Tolerances:
Energy Change            TolE     ....  5.0000e-06 Eh
Max. Gradient            TolMAXG  ....  3.0000e-04 Eh/bohr
RMS Gradient             TolRMSG  ....  1.0000e-04 Eh/bohr
Max. Displacement        TolMAXD  ....  4.0000e-03 bohr
RMS Displacement         TolRMSD  ....  2.0000e-03 bohr
Strict Convergence                .... False

------------------------------------------------------------------------------
                        ORCA OPTIMIZATION COORDINATE SETUP
------------------------------------------------------------------------------

The optimization will be done in redundant internal coordinates (2022)
Making redundant internal coordinates   ...  (2022 redundants) done
Evaluating the initial hessian          ...  (Almloef) done
Evaluating the coordinates              ...  done
Calculating the B-matrix                .... done
Calculating the G-matrix                .... done
The number of degrees of freedom        ....   15

    -----------------------------------------------------------------
                    Redundant Internal Coordinates


    -----------------------------------------------------------------
         Definition                    Initial Value    Approx d2E/dq
    -----------------------------------------------------------------
      1. B(O   1,C   0)                  1.4280         0.486686   
      2. B(H   2,C   0)                  1.0986         0.348929   
      3. B(H   3,C   0)                  1.0968         0.351197   
      4. B(H   4,C   0)                  1.0968         0.351197   
      5. B(H   5,O   1)                  0.9987         0.450976   
      6. A(O   1,C   0,H   3)          119.6744         0.335381   
      7. A(O   1,C   0,H   2)          119.6220         0.335020   
      8. A(O   1,C   0,H   4)          119.6744         0.335381   
      9. A(H   2,C   0,H   4)           97.6636         0.288273   
     10. A(H   3,C   0,H   4)           97.5588         0.288565   
     11. A(H   2,C   0,H   3)           97.6636         0.288273   
     12. A(C   0,O   1,H   5)          115.6927         0.346690   
     13. D(H   5,O   1,C   0,H   3)    -30.0357         0.018697   
     14. D(H   5,O   1,C   0,H   4)   -149.9643         0.018697   
     15. D(H   5,O   1,C   0,H   2)     90.0000         0.018697   
    -----------------------------------------------------------------

Number of atoms                         .... 6
Number of degrees of freedom            .... 15


         *************************************************************
         *                GEOMETRY OPTIMIZATION CYCLE   1            *
         *************************************************************
---------------------------------
CARTESIAN COORDINATES (ANGSTROEM)
---------------------------------
  C      0.000000    0.000000    0.000000
  O      1.428000    0.000000    0.000000
  H     -0.543000    0.955000    0.000000
  H     -0.543000   -0.477000    0.825000
  H     -0.543000   -0.477000   -0.825000
  H      1.861000    0.000000    0.900000

----------------------------
CARTESIAN COORDINATES (A.U.)
----------------------------
  NO LB      ZA    FRAG     MASS         X           Y           Z
   0 C     6.0000    0    12.011    0.000000    0.000000    0.000000
   1 O     8.0000    0    15.999    2.698529    0.000000    0.000000
   2 H     1.0000    0     1.008   -1.026121    1.804688    0.000000
   3 H     1.0000    0     1.008   -1.026121   -0.901399    1.559024
   4 H     1.0000    0     1.008   -1.026121   -0.901399   -1.559024
   5 H     1.0000    0     1.008    3.516780    0.000000    1.700754

--------------------------------
INTERNAL COORDINATES (ANGSTROEM)
--------------------------------
 C      0   0   0     0.000000000000     0.00000000     0.00000000
 O      1   0   0     1.428000000000     0.00000000     0.00000000
 H      1   2   0     1.098578172002   119.62197081     0.00000000
 H      1   2   3     1.096814934253   119.67435613   239.96427968
 H      1   2   3     1.096814934253   119.67435613   120.03572032
 H      2   1   3     0.998743710869   115.69272427    90.00000000

---------------------------
INTERNAL COORDINATES (A.U.)
---------------------------
 C      0   0   0     0.000000000000     0.00000000     0.00000000
 O      1   0   0     2.698528919240     0.00000000     0.00000000
 H      1   2   0     2.076011881788   119.62197081     0.00000000
 H      1   2   3     2.072679845333   119.67435613   239.96427968
 H      1   2   3     2.072679845333   119.67435613   120.03572032
 H      2   1   3     1.887352091518   115.69272427    90.00000000

---------------------
BASIS SET INFORMATION
---------------------
There are 3 groups of distinct atoms

 Group   1 Type C   : 6s3p contracted to 2s1p pattern {33/3}
 Group   2 Type O   : 6s3p contracted to 2s1p pattern {33/3}
 Group   3 Type H   : 3s contracted to 1s pattern {3}

Atom   0C    basis set group =>   1
Atom   1O    basis set group =>   2
Atom   2H    basis set group =>   3
Atom   3H    basis set group =>   3
Atom   4H    basis set group =>   3
Atom   5H    basis set group =>   3


           ************************************************************
           *        Program running with 2 parallel MPI-processes     *
           *              working on a common directory               *
           ************************************************************
------------------------------------------------------------------------------
                             ORCA STARTUP CALCULATIONS
------------------------------------------------------------------------------
------------------------------------------------------------------------------
                   ___                                                        
                  /   \      - P O W E R E D   B Y -                         
                 /     \                                                     
                 |  |  |   _    _      __       _____    __    __             
                 |  |  |  | |  | |    /  \     |  _  \  |  |  /  |          
                  \  \/   | |  | |   /    \    | | | |  |  | /  /          
                 / \  \   | |__| |  /  /\  \   | |_| |  |  |/  /          
                |  |  |   |  __  | /  /__\  \  |    /   |      \           
                |  |  |   | |  | | |   __   |  |    \   |  |\   \          
                \     /   | |  | | |  |  |  |  | |\  \  |  | \   \       
                 \___/    |_|  |_| |__|  |__|  |_| \__\ |__|  \__/        
                                                                              
                      - O R C A' S   B I G   F R I E N D -                    
                                      &                                       
                       - I N T E G R A L  F E E D E R -                       
                                                                              
 v1 FN, 2020, v2 2021, v3 2022-2024                                           
------------------------------------------------------------------------------


----------------------
SHARK INTEGRAL PACKAGE
----------------------

Number of atoms                             ...      6
Number of basis functions                   ...     14
Number of shells                            ...     10
Maximum angular momentum                    ...      1
Integral batch strategy                     ... SHARK/LIBINT Hybrid
RI-J (if used) integral strategy            ... SPLIT-RIJ (Revised 2003 algorithm where possible)
Printlevel                                  ...      1
Contraction scheme used                     ... SEGMENTED contraction
Prescreening option                         ... SCHWARTZ
   Thresh                                   ... 2.500e-11
   Tcut                                     ... 2.500e-12
   Tpresel                                  ... 2.500e-12 
Coulomb Range Separation                    ... NOT USED
Exchange Range Separation                   ... NOT USED
Multipole approximations                    ... NOT USED
Finite Nucleus Model                        ... NOT USED
CABS basis                                  ... NOT available
Auxiliary Coulomb fitting basis             ... NOT available
Auxiliary J/K fitting basis                 ... NOT available
Auxiliary Correlation fitting basis         ... NOT available
Auxiliary 'external' fitting basis          ... NOT available

Checking pre-screening integrals            ... done (  0.0 sec) Dimension = 10
   => SHARK Basis and OBASIS are compatible. Storing Pre-screening
Shell pair information
Shell pair cut-off parameter TPreSel        ...   2.5e-12
Total number of shell pairs                 ...        55
Shell pairs after pre-screening             ...        55
Total number of primitive shell pairs       ...       495
Primitive shell pairs kept                  ...       447
          la=0 lb=0:     36 shell pairs
          la=1 lb=0:     16 shell pairs
          la=1 lb=1:      3 shell pairs

Checking whether 4 symmetric matrices of dimension 14 fit in memory
:Max Core in MB      =   1000.00
 MB in use           =      0.86
 MB left             =    999.14
 MB needed           =      0.00
 Data fit in memory  = YES
Calculating Nuclear repulsion               ... done (  0.0 sec) ENN=     39.588901798566 Eh
Entering conventional section               ... 
Calculating 4-index integrals               ...     -> SHARK/Ints2Disk: Thresh =     2.500000e-11 TCut=    2.500000e-12 
    -> calling libint FockFlag=2 Lmax_loc=1
    ->Total LIBINT loop time =    0.000 sec
    -> L=0 0 0 0:     0.001 sec done=       653 (=100.0%) skipped=         0 
    -> L=1 0 0 0:     0.001 sec done=       576 (=100.0%) skipped=         0 
    -> L=1 0 1 0:     0.000 sec done=       136 (=100.0%) skipped=         0 
    -> L=1 1 0 0:     0.000 sec done=       108 (=100.0%) skipped=         0 
    -> L=1 1 1 0:     0.000 sec done=        48 (=100.0%) skipped=         0 
    -> L=1 1 1 1:     0.000 sec done=         6 (=100.0%) skipped=         0 
    ->Total SHARK integral loop time =    0.004 sec
    -> Total Integral generation matrix time =    0.080 sec
    -> Number of small integrals   =        32
    -> Number of medium integrals  =        15
    -> Number of large integrals   =      3951
    -> Number of MB stored         =         0 MB

done (  0.1 sec)
Leaving conventional section

Diagonalization of the overlap matrix:
Smallest eigenvalue                        ... 2.197e-01
Time for diagonalization                   ...    0.001 sec
Threshold for overlap eigenvalues          ... 1.000e-07
Number of eigenvalues below threshold      ... 0
Time for construction of square roots      ...    0.020 sec
Total time needed                          ...    0.094 sec

-------------------
DFT GRID GENERATION
-------------------

General Integration Accuracy     IntAcc      ... 4.388
Radial Grid Type                 RadialGrid  ... OptM3 with GC (2021)
Angular Grid (max. ang.)         AngularGrid ... 4 (Lebedev-302)
Angular grid pruning method      GridPruning ... 4 (adaptive)
Weight generation scheme         WeightScheme... mBecke (2022)
Basis function cutoff            BFCut       ... 1.0000e-11
Integration weight cutoff        WCut        ... 1.0000e-14
Partially contracted basis set               ... off
Rotationally invariant grid construction     ... off
Angular grids for H and He will be reduced by one unit

Total number of grid points                  ...    25321
Total number of batches                      ...      399
Average number of points per batch           ...       63
Average number of grid points per atom       ...     4220
Grids setup in   0.9 sec
Initializing property integral containers    ... done (  0.3 sec)

SHARK setup successfully completed in   1.9 seconds

Maximum memory used throughout the entire STARTUP-calculation: 29.5 MB


           ************************************************************
           *        Program running with 2 parallel MPI-processes     *
           *              working on a common directory               *
           ************************************************************
-------------------------------------------------------------------------------
                                 ORCA GUESS
                   Start orbitals & Density for SCF / CASSCF
-------------------------------------------------------------------------------

------------
SCF SETTINGS
------------
Hamiltonian:
 Ab initio Hamiltonian  Method          .... Hartree-Fock(GTOs)


General Settings:
 Integral files         IntName         .... CH₃OH
 Hartree-Fock type      HFTyp           .... RHF
 Total Charge           Charge          ....    0
 Multiplicity           Mult            ....    1
 Number of Electrons    NEL             ....   18
 Basis Dimension        Dim             ....   14
 Nuclear Repulsion      ENuc            ....     39.5889017986 Eh

Convergence Acceleration:
 AO-DIIS                CNVDIIS         .... on
   Start iteration      DIISMaxIt       ....    12
   Startup error        DIISStart       ....  0.200000
   # of expansion vecs  DIISMaxEq       ....     5
   Bias factor          DIISBfac        ....   1.050
   Max. coefficient     DIISMaxC        ....  10.000
 MO-DIIS                CNVKDIIS        .... off
 Trust-Rad. Augm. Hess. CNVTRAH         .... auto
   Auto Start mean grad. ratio tolernc. ....  1.125000
   Auto Start start iteration           ....    50
   Auto Start num. interpolation iter.  ....    10
   Max. Number of Micro iterations      ....    24
   Max. Number of Macro iterations      .... Maxiter - #DIIS iter
   Number of Davidson start vectors     ....     2
   Converg. threshold    (grad. norm)   ....   1.000e-05
   Grad. Scal. Fac. for Micro threshold ....   0.100
   Minimum threshold for Micro iter.    ....   1.000e-02
   NR start threshold (gradient norm)   ....   1.000e-04
   Initial trust radius                 ....   0.400
   Minimum AH scaling param. (alpha)    ....   1.000
   Maximum AH scaling param. (alpha)    .... 1000.000
   Quad. conv. algorithm                .... NR
   White noise on init. David. guess    .... on
   Maximum white noise                  ....   0.010
   Pseudo random numbers                .... off
   Inactive MOs                         .... canonical
   Orbital update algorithm             .... Taylor
   Preconditioner                       .... Diag
   Full preconditioner red. dimension   ....   250
 SOSCF                 CNVSOSCF           .... on
   Start iteration     SOSCFMaxIt         ....   150
   Startup grad/error  SOSCFStart         ....  0.003300
   Hessian update      SOSCFHessUp        .... L-BFGS
   Autom. constraints  SOSCFAutoConstrain .... off
 Level Shifting         CNVShift        .... on
   Level shift para.    LevelShift      ....    0.2500
   Turn off err/grad.   ShiftErr        ....    0.0010
 Zerner damping         CNVZerner       .... off
 Static damping         CNVDamp         .... on
   Fraction old density DampFac         ....    0.7000
   Max. Damping (<1)    DampMax         ....    0.9800
   Min. Damping (>=0)   DampMin         ....    0.0000
   Turn off err/grad.   DampErr         ....    0.1000

SCF Procedure:
 Maximum # iterations   MaxIter         ....   125
 SCF integral mode      SCFMode         .... Conventional
 Integral Threshold     Thresh          ....  2.500e-11 Eh
 Primitive CutOff       TCut            ....  2.500e-12 Eh
 Integral Buffer length BufferLength    .... 1048576
 Integral index format  IndFormat       ....     0
 Integral value format  ValFormat       ....     0
 Integral Storage       Thresh          ....  2.500e-11 Eh

Convergence Tolerance:
 Convergence Check Mode ConvCheckMode   .... Total+1el-Energy
 Convergence forced     ConvForced      .... 0
 Energy Change          TolE            ....  1.000e-08 Eh
 1-El. energy change                    ....  1.000e-05 Eh
 Orbital Gradient       TolG            ....  1.000e-05
 Orbital Rotation angle TolX            ....  1.000e-05
 DIIS Error             TolErr          ....  5.000e-07

--------------------------------
INITIAL GUESS: MINIMAL BASIS EHT
--------------------------------
The minimal basis has 14 functions
EHT matrix was diagonalized
Basis set overlap was calculated now projecting the orbitals
Using GuessMode=FMatrix for the initial guess
C*T matrix was formed
Effective Fockian was calculated
Effective Fockian was diagonalized
Initial density was built
                      ------------------
                      INITIAL GUESS DONE
                      ------------------
             **** ENERGY FILE WAS UPDATED (CH₃OH.en.tmp) ****
Finished Guess after   0.7 sec
Maximum memory used throughout the entire GUESS-calculation: 2.2 MB


           ************************************************************
           *        Program running with 2 parallel MPI-processes     *
           *              working on a common directory               *
           ************************************************************

-------------------------------------------------------------------------------------------
                                      ORCA LEAN-SCF
                              memory conserving SCF solver
-------------------------------------------------------------------------------------------


 InCore treatment chosen for four center integrals:
   Memory dedicated               ...    1000 MB
   Memory needed                  ...      0 MB
   Number of tiny    integrals    ...      32
   Number of small   integrals    ...      15
   Number of regular integrals    ...    3951

----------------------------------------D-I-I-S--------------------------------------------
Iteration    Energy (Eh)           Delta-E    RMSDP     MaxDP     DIISErr   Damp  Time(sec)
-------------------------------------------------------------------------------------------
    1    -114.1454362947919776     0.00e+00  2.43e-02  7.24e-02  1.98e-01  0.700   0.6
    2    -114.1755157884597622    -3.01e-02  2.14e-02  6.17e-02  1.46e-01  0.700   0.7
                               ***Turning on AO-DIIS***
    3    -114.1974333601221474    -2.19e-02  1.65e-02  4.62e-02  1.01e-01  0.700   0.6
    4    -114.2131636693773657    -1.57e-02  1.29e-02  3.62e-02  7.26e-02  0.700   0.6
    5    -114.2245668615376815    -1.14e-02  3.36e-02  9.34e-02  5.22e-02  0.000   0.6
    6    -114.2536275174319940    -2.91e-02  4.73e-03  1.74e-02  6.48e-03  0.000   0.5
    7    -114.2538899070747789    -2.62e-04  3.55e-03  1.27e-02  3.60e-03  0.000   0.5
                              *** Initializing SOSCF ***
---------------------------------------S-O-S-C-F--------------------------------------
Iteration    Energy (Eh)           Delta-E    RMSDP     MaxDP     MaxGrad    Time(sec)
--------------------------------------------------------------------------------------
    8    -114.2539764830729609    -8.66e-05  1.05e-03  3.40e-03  1.15e-03     0.8
    9    -114.2539835891074063    -7.11e-06  1.77e-04  4.70e-04  2.99e-04     0.5
   10    -114.2539839523345790    -3.63e-07  1.42e-04  4.08e-04  1.21e-04     0.5
   11    -114.2539840411412513    -8.88e-08  6.59e-06  1.80e-05  7.77e-06     0.4
   12    -114.2539840415853689    -4.44e-10  1.64e-06  6.03e-06  2.82e-06     0.5
                 **** Energy Check signals convergence ****

               *****************************************************
               *                     SUCCESS                       *
               *           SCF CONVERGED AFTER  12 CYCLES          *
               *****************************************************

             **** ENERGY FILE WAS UPDATED (CH₃OH.en.tmp) ****

----------------
TOTAL SCF ENERGY
----------------

Total Energy       :       -114.25398404161183 Eh           -3109.00896 eV

Components:
Nuclear Repulsion  :         39.58890179856554 Eh            1077.26879 eV
Electronic Energy  :       -153.84288584017736 Eh           -4186.27775 eV
One Electron Energy:       -234.75665795704387 Eh           -6388.05343 eV
Two Electron Energy:         80.91377211686651 Eh            2201.77568 eV

Virial components:
Potential Energy   :       -228.54915383951661 Eh           -6219.13865 eV
Kinetic Energy     :        114.29516979790478 Eh            3110.12969 eV
Virial Ratio       :          1.99963965444589

---------------
SCF CONVERGENCE
---------------

  Last Energy change         ...    4.4412e-10  Tolerance :   1.0000e-08
  Last MAX-Density change    ...    6.0297e-06  Tolerance :   1.0000e-07
  Last RMS-Density change    ...    1.6404e-06  Tolerance :   5.0000e-09
  Last DIIS Error            ...    1.1501e-03  Tolerance :   5.0000e-07
  Last Orbital Gradient      ...    2.8236e-06  Tolerance :   1.0000e-05
  Last Orbital Rotation      ...    1.7489e-06  Tolerance :   1.0000e-05


----------------
ORBITAL ENERGIES
----------------

  NO   OCC          E(Eh)            E(eV) 
   0   2.0000     -20.311029      -552.6912 
   1   2.0000     -11.208908      -305.0099 
   2   2.0000      -1.314259       -35.7628 
   3   2.0000      -0.929524       -25.2936 
   4   2.0000      -0.654515       -17.8103 
   5   2.0000      -0.592939       -16.1347 
   6   2.0000      -0.577652       -15.7187 
   7   2.0000      -0.456379       -12.4187 
   8   2.0000      -0.419352       -11.4112 
   9   0.0000       0.477814        13.0020 
  10   0.0000       0.604684        16.4543 
  11   0.0000       0.648297        17.6411 
  12   0.0000       0.698530        19.0080 
  13   0.0000       0.824811        22.4442 
*Only the first 10 virtual orbitals were printed.

                    ********************************
                    * MULLIKEN POPULATION ANALYSIS *
                    ********************************

-----------------------
MULLIKEN ATOMIC CHARGES
-----------------------
   0 C :   -0.188087
   1 O :   -0.497424
   2 H :    0.120644
   3 H :    0.119187
   4 H :    0.136710
   5 H :    0.308970
Sum of atomic charges:    0.0000000

--------------------------------
MULLIKEN REDUCED ORBITAL CHARGES
--------------------------------
  0 C s       :     3.124632  s :     3.124632
      pz      :     1.130622  p :     3.063456
      px      :     0.809427
      py      :     1.123406

  1 O s       :     3.780219  s :     3.780219
      pz      :     1.496444  p :     4.717205
      px      :     1.251775
      py      :     1.968986

  2 H s       :     0.879356  s :     0.879356

  3 H s       :     0.880813  s :     0.880813

  4 H s       :     0.863290  s :     0.863290

  5 H s       :     0.691030  s :     0.691030



                     *******************************
                     * LOEWDIN POPULATION ANALYSIS *
                     *******************************

----------------------
LOEWDIN ATOMIC CHARGES
----------------------
   0 C :   -0.095557
   1 O :   -0.362951
   2 H :    0.070130
   3 H :    0.070240
   4 H :    0.085169
   5 H :    0.232968

-------------------------------
LOEWDIN REDUCED ORBITAL CHARGES
-------------------------------
  0 C s       :     2.978103  s :     2.978103
      pz      :     1.136097  p :     3.117454
      px      :     0.851879
      py      :     1.129478

  1 O s       :     3.634347  s :     3.634347
      pz      :     1.492164  p :     4.728604
      px      :     1.268377
      py      :     1.968064

  2 H s       :     0.929870  s :     0.929870

  3 H s       :     0.929760  s :     0.929760

  4 H s       :     0.914831  s :     0.914831

  5 H s       :     0.767032  s :     0.767032



                      *****************************
                      * MAYER POPULATION ANALYSIS *
                      *****************************

  NA   - Mulliken gross atomic population
  ZA   - Total nuclear charge
  QA   - Mulliken gross atomic charge
  VA   - Mayer's total valence
  BVA  - Mayer's bonded valence
  FA   - Mayer's free valence

  ATOM       NA         ZA         QA         VA         BVA        FA
  0 C      6.1881     6.0000    -0.1881     3.8708     3.8708     0.0000
  1 O      8.4974     8.0000    -0.4974     1.9034     1.9034     0.0000
  2 H      0.8794     1.0000     0.1206     0.9854     0.9854     0.0000
  3 H      0.8808     1.0000     0.1192     0.9858     0.9858    -0.0000
  4 H      0.8633     1.0000     0.1367     0.9813     0.9813     0.0000
  5 H      0.6910     1.0000     0.3090     0.9045     0.9045     0.0000

  Mayer bond orders larger than 0.100000
B(  0-C ,  1-O ) :   0.9693 B(  0-C ,  2-H ) :   0.9593 B(  0-C ,  3-H ) :   0.9642 
B(  0-C ,  4-H ) :   0.9622 B(  1-O ,  5-H ) :   0.8797 

-------
TIMINGS
-------

Total SCF time: 0 days 0 hours 0 min 8 sec 

Total time                  ....       8.065 sec
Sum of individual times     ....       6.472 sec  ( 80.2%)

SCF preparation             ....       0.549 sec  (  6.8%)
Fock matrix formation       ....       1.375 sec  ( 17.0%)
  Startup                   ....       0.342 sec  ( 24.9% of F)
  Coulomb+Exchange Fock     ....       0.421 sec  ( 30.6% of F)
Diagonalization             ....       0.000 sec  (  0.0%)
Density matrix formation    ....       1.280 sec  ( 15.9%)
Total Energy calculation    ....       0.410 sec  (  5.1%)
Population analysis         ....       0.190 sec  (  2.4%)
Orbital Transformation      ....       0.194 sec  (  2.4%)
Orbital Orthonormalization  ....       0.000 sec  (  0.0%)
DIIS solution               ....       1.650 sec  ( 20.5%)
SOSCF solution              ....       0.826 sec  ( 10.2%)
Finished LeanSCF after   8.3 sec

Maximum memory used throughout the entire LEANSCF-calculation: 51.2 MB


           ************************************************************
           *        Program running with 2 parallel MPI-processes     *
           *              working on a common directory               *
           ************************************************************

------------------------------------------------------------------------------
                         ORCA PROPERTY INTEGRAL CALCULATIONS
------------------------------------------------------------------------------

GBWName                                   ... CH₃OH.gbw
Number of atoms                           ...      6
Number of basis functions                 ...     14
Max core memory                           ...   1000 MB

Dipole integrals                          ... YES
Quadrupole integrals                      ...  NO
Linear momentum integrals                 ...  NO
Angular momentum integrals                ...  NO
Higher moments length integrals           ...  NO
Higher moments velocity integrals         ...  NO
Kinetic energy integrals                  ...  NO
GIAO right hand sides                     ...  NO
GIAO dipole derivative integrals          ...  NO
SOC integrals                             ...  NO
EPR diamagnetic integrals (GIAO)          ...  NO
EPR gauge integrals                       ...  NO
Field gradient integrals                  ...  NO (   0 nuclei)
Spin-dipole/Fermi contact integrals       ...  NO (   0 nuclei)
Contact density integrals                 ...  NO (   0 nuclei)
Nucleus-orbit integrals                   ...  NO (   0 nuclei)
Geometric perturbations                   ...  NO (   6 nuclei)

Choice of electric origin   ... Center of mass
Position of electric origin ... (  1.3612,  0.0001,  0.0535) 
Choice of magnetic origin   ... GIAO
Position of magnetic origin ... (  0.0000,  0.0000,  0.0000) 

Calculating integrals                     ... Electric Dipole (Length)     done (  0.1 sec)

Property integrals calculated in   0.1 sec

Maximum memory used throughout the entire PROPINT-calculation: 2.3 MB


-------------------------------------------------------------------------------
                          DFT DISPERSION CORRECTION                            
                                                                               
                              DFTD3 V3.1  Rev 1                                
                          USING Becke-Johnson damping                          
-------------------------------------------------------------------------------
Hartree-Fock is recognized
Active option DFTDOPT                   ...         4   

molecular C6(AA) [au] = 208.841230 


            DFT-D V3
 parameters
 using HF/MINIX parameters
 s6 scaling factor         :     1.0000 
 a1 scaling factor         :     0.4171 
 s8 scaling factor         :     0.8777 
 a2 scaling factor         :     2.9149 
 ad hoc parameters k1-k3   :    16.0000     1.3333    -4.0000 

 Edisp/kcal,au: -7.221337295792  -0.011507932269 
 E6   /kcal   :  -4.229933997 
 E8   /kcal   :  -2.991403299 
 % E8         :  41.424505963 

-------------------------   ----------------
Dispersion correction           -0.011507932
-------------------------   ----------------

------------------   -----------------
gCP+bas correction        -0.010235931
------------------   -----------------
----------------------------   ----------------
Total correction to HF/MINIX       -0.021743863
----------------------------   ----------------


-------------------------   --------------------
FINAL SINGLE POINT ENERGY      -114.275727904581
-------------------------   --------------------



           ************************************************************
           *        Program running with 2 parallel MPI-processes     *
           *              working on a common directory               *
           ************************************************************
------------------------------------------------------------------------------
                         ORCA SCF GRADIENT CALCULATION
------------------------------------------------------------------------------

Nuc. rep. gradient        (SHARK) ... done (  0.0 sec)
HCore & Overlap gradient  (SHARK) ... done (  0.0 sec)
Two-electron gradient     (SHARK) ... done (  0.0 sec)
Dispersion correction             ... done (  0.1 sec)

-------------------
DISPERSION GRADIENT
-------------------

   1   C   :   -0.000376452    0.000000692   -0.000145374
   2   O   :    0.001042633   -0.000000191    0.000024977
   3   H   :   -0.000461971    0.000419730   -0.000053668
   4   H   :   -0.000555689   -0.000228425    0.000305516
   5   H   :   -0.000401428   -0.000198196   -0.000372740
   6   H   :    0.000752907    0.000006391    0.000241289

Difference to translation invariance:
           :   -0.0000000000   -0.0000000000   -0.0000000000

Difference to rotation invariance:
           :   -0.0000000000   -0.0000000000    0.0000000000

Norm of the Dispersion gradient    ...    0.0017498080
RMS gradient                       ...    0.0004124337
MAX gradient                       ...    0.0010426334
gCP correction                   ... done

------------------
CARTESIAN GRADIENT
------------------

   1   C   :    0.051329455   -0.003770493   -0.020251846
   2   O   :    0.002678355    0.002856261   -0.001407747
   3   H   :   -0.025986540   -0.017674595    0.000016780
   4   H   :   -0.022545398    0.009547701   -0.014183181
   5   H   :   -0.032350508    0.009962154    0.016671373
   6   H   :    0.026874637   -0.000921027    0.019154621

Difference to translation invariance:
           :    0.0000000000    0.0000000000    0.0000000000

Difference to rotation invariance:
           :    0.0000000120    0.0000001932   -0.0000000738

Norm of the Cartesian gradient     ...    0.0858977117
RMS gradient                       ...    0.0202462848
MAX gradient                       ...    0.0513294546

-------
TIMINGS
-------

Total SCF gradient time     ....        0.194 sec

Densities                   ....       0.000 sec  (  0.0%)
One electron gradient       ....       0.008 sec  (  4.0%)
Two electron gradient       ....       0.020 sec  ( 10.2%)

Maximum memory used throughout the entire SCFGRAD-calculation: 22.9 MB
------------------------------------------------------------------------------
                         ORCA GEOMETRY RELAXATION STEP
------------------------------------------------------------------------------

Reading the OPT-File                    .... done
Getting information on internals        .... done
Copying old internal coords+grads       .... done
Making the new internal coordinates     .... (2022 redundants) done
Validating the new internal coordinates .... (2022 redundants) done
Calculating the B-matrix                .... done
Calculating the G,G- and P matrices     .... done
Transforming gradient to internals      .... done
Projecting the internal gradient        .... done
Number of atoms                         ....   6
Number of internal coordinates          ....  15
Current Energy                          ....  -114.275727905 Eh
Current gradient norm                   ....     0.085897712 Eh/bohr
Maximum allowed component of the step   ....  0.300
Current trust radius                    ....  0.300
Evaluating the initial hessian          ....  (Almloef) done
Projecting the Hessian                  .... done
Forming the augmented Hessian           .... done
Diagonalizing the augmented Hessian     .... done
Last element of RFO vector              ....  0.969768762
Lowest eigenvalues of augmented Hessian:
 -0.021926443  0.018716070  0.153123393  0.153226867  0.318325792
Length of the computed step             ....  0.251632887
The final length of the internal step   ....  0.251632887
Converting the step to Cartesian space:
 Initial RMS(Int)=    0.0649713320
Transforming coordinates:
 Iter   0:  RMS(Cart)=    0.0792339802 RMS(Int)=    0.0636327406
 Iter   5:  RMS(Cart)=    0.0000000778 RMS(Int)=    0.0000000775
done
Storing new coordinates                 .... done

                                .--------------------.
          ----------------------|Geometry convergence|-------------------------
          Item                value                   Tolerance       Converged
          ---------------------------------------------------------------------
          RMS gradient        0.0228525999            0.0001000000      NO
          MAX gradient        0.0346838851            0.0003000000      NO
          RMS step            0.0649713320            0.0020000000      NO
          MAX step            0.1077558810            0.0040000000      NO
          -------------------------------------------------------------------------
          ........................................................
          Max(Bonds)      0.0324      Max(Angles)    6.17
          Max(Dihed)        1.62      Max(Improp)    0.00
          ---------------------------------------------------------------------

The optimization has not yet converged - more geometry cycles are needed


    ---------------------------------------------------------------------------
                         Redundant Internal Coordinates
                            (Angstroem and degrees)

        Definition                    Value    dE/dq     Step     New-Value
    ----------------------------------------------------------------------------
     1. B(O   1,C   0)                1.4280  0.029553 -0.0307    1.3973   
     2. B(H   2,C   0)                1.0986 -0.002520  0.0036    1.1022   
     3. B(H   3,C   0)                1.0968 -0.003659  0.0052    1.1020   
     4. B(H   4,C   0)                1.0968 -0.000857  0.0012    1.0980   
     5. B(H   5,O   1)                0.9987  0.028912 -0.0324    0.9664   
     6. A(O   1,C   0,H   3)          119.67  0.017394   -2.98    116.69   
     7. A(O   1,C   0,H   2)          119.62  0.022722   -3.91    115.71   
     8. A(O   1,C   0,H   4)          119.67  0.034620   -6.17    113.50   
     9. A(H   2,C   0,H   4)           97.66 -0.034684    5.79    103.46   
    10. A(H   3,C   0,H   4)           97.56 -0.032283    5.47    103.03   
    11. A(H   2,C   0,H   3)           97.66 -0.030297    5.74    103.41   
    12. A(C   0,O   1,H   5)          115.69  0.030034   -4.67    111.02   
    13. D(H   5,O   1,C   0,H   3)    -30.04  0.003417   -1.62    -31.65   
    14. D(H   5,O   1,C   0,H   4)   -149.96  0.001074   -0.88   -150.85   
    15. D(H   5,O   1,C   0,H   2)     90.00 -0.002925    0.29     90.29   
    ----------------------------------------------------------------------------

Geometry step timings:
Preparation and reading OPT file:      0.005 s ( 5.918 %)
Internal coordinates            :      0.006 s ( 7.498 %)
B/P matrices and projection     :      0.006 s ( 7.179 %)
Hessian update/contruction      :      0.021 s (26.494 %)
Making the step                 :      0.015 s (18.362 %)
Converting the step to Cartesian:      0.003 s ( 4.145 %)
Storing new data                :      0.005 s ( 5.642 %)
Checking convergence            :      0.006 s ( 6.953 %)
Final printing                  :      0.014 s (17.798 %)
Total time                      :      0.081 s

Time for energy+gradient        :     14.019 s
Time for complete geometry iter :     15.130 s

         *************************************************************
         *                GEOMETRY OPTIMIZATION CYCLE   2            *
         *************************************************************
---------------------------------
CARTESIAN COORDINATES (ANGSTROEM)
---------------------------------
  C     -0.016515    0.002479    0.014891
  O      1.380210   -0.005739   -0.022622
  H     -0.487058    0.999158    0.012215
  H     -0.490106   -0.500860    0.873247
  H     -0.477598   -0.496934   -0.847466
  H      1.751066    0.002896    0.869735

----------------------------
CARTESIAN COORDINATES (A.U.)
----------------------------
  NO LB      ZA    FRAG     MASS         X           Y           Z
   0 C     6.0000    0    12.011   -0.031208    0.004684    0.028139
   1 O     8.0000    0    15.999    2.608218   -0.010845   -0.042750
   2 H     1.0000    0     1.008   -0.920406    1.888135    0.023084
   3 H     1.0000    0     1.008   -0.926165   -0.946488    1.650197
   4 H     1.0000    0     1.008   -0.902529   -0.939070   -1.601478
   5 H     1.0000    0     1.008    3.309036    0.005473    1.643562

--------------------------------
INTERNAL COORDINATES (ANGSTROEM)
--------------------------------
 C      0   0   0     0.000000000000     0.00000000     0.00000000
 O      1   0   0     1.397252101071     0.00000000     0.00000000
 H      1   2   0     1.102174160182   115.59549859     0.00000000
 H      1   2   3     1.102004248513   116.60374399   238.20123102
 H      1   2   3     1.098029767109   113.32836247   118.97638092
 H      2   1   3     0.966390994669   111.02442803    90.20436565

---------------------------
INTERNAL COORDINATES (A.U.)
---------------------------
 C      0   0   0     0.000000000000     0.00000000     0.00000000
 O      1   0   0     2.640423811071     0.00000000     0.00000000
 H      1   2   0     2.082807314628   115.59549859     0.00000000
 H      1   2   3     2.082486228108   116.60374399   238.20123102
 H      1   2   3     2.074975546729   113.32836247   118.97638092
 H      2   1   3     1.826214318211   111.02442803    90.20436565



           ************************************************************
           *        Program running with 2 parallel MPI-processes     *
           *              working on a common directory               *
           ************************************************************
------------------------------------------------------------------------------
                   ___                                                        
                  /   \      - P O W E R E D   B Y -                         
                 /     \                                                     
                 |  |  |   _    _      __       _____    __    __             
                 |  |  |  | |  | |    /  \     |  _  \  |  |  /  |          
                  \  \/   | |  | |   /    \    | | | |  |  | /  /          
                 / \  \   | |__| |  /  /\  \   | |_| |  |  |/  /          
                |  |  |   |  __  | /  /__\  \  |    /   |      \           
                |  |  |   | |  | | |   __   |  |    \   |  |\   \          
                \     /   | |  | | |  |  |  |  | |\  \  |  | \   \       
                 \___/    |_|  |_| |__|  |__|  |_| \__\ |__|  \__/        
                                                                              
                      - O R C A' S   B I G   F R I E N D -                    
                                      &                                       
                       - I N T E G R A L  F E E D E R -                       
                                                                              
 v1 FN, 2020, v2 2021, v3 2022-2024                                           
------------------------------------------------------------------------------


----------------------
SHARK INTEGRAL PACKAGE
----------------------

Number of atoms                             ...      6
Number of basis functions                   ...     14
Number of shells                            ...     10
Maximum angular momentum                    ...      1
Integral batch strategy                     ... SHARK/LIBINT Hybrid
RI-J (if used) integral strategy            ... SPLIT-RIJ (Revised 2003 algorithm where possible)
Printlevel                                  ...      1
Contraction scheme used                     ... SEGMENTED contraction
Prescreening option                         ... SCHWARTZ
   Thresh                                   ... 2.500e-11
   Tcut                                     ... 2.500e-12
   Tpresel                                  ... 2.500e-12 
Coulomb Range Separation                    ... NOT USED
Exchange Range Separation                   ... NOT USED
Multipole approximations                    ... NOT USED
Finite Nucleus Model                        ... NOT USED
CABS basis                                  ... NOT available
Auxiliary Coulomb fitting basis             ... NOT available
Auxiliary J/K fitting basis                 ... NOT available
Auxiliary Correlation fitting basis         ... NOT available
Auxiliary 'external' fitting basis          ... NOT available

Checking pre-screening integrals            ... done (  0.0 sec) Dimension = 10
   => SHARK Basis and OBASIS are compatible. Storing Pre-screening
Shell pair information
Shell pair cut-off parameter TPreSel        ...   2.5e-12
Total number of shell pairs                 ...        55
Shell pairs after pre-screening             ...        55
Total number of primitive shell pairs       ...       495
Primitive shell pairs kept                  ...       449
          la=0 lb=0:     36 shell pairs
          la=1 lb=0:     16 shell pairs
          la=1 lb=1:      3 shell pairs

Checking whether 4 symmetric matrices of dimension 14 fit in memory
:Max Core in MB      =   1000.00
 MB in use           =      0.86
 MB left             =    999.14
 MB needed           =      0.00
 Data fit in memory  = YES
Calculating Nuclear repulsion               ... done (  0.0 sec) ENN=     40.375858470620 Eh
Entering conventional section               ... 
Calculating 4-index integrals               ...     -> SHARK/Ints2Disk: Thresh =     2.500000e-11 TCut=    2.500000e-12 
    -> calling libint FockFlag=2 Lmax_loc=1
    ->Total LIBINT loop time =    0.000 sec
    -> L=0 0 0 0:     0.001 sec done=       660 (=100.0%) skipped=         0 
    -> L=1 0 0 0:     0.001 sec done=       576 (=100.0%) skipped=         0 
    -> L=1 0 1 0:     0.002 sec done=       136 (=100.0%) skipped=         0 
    -> L=1 1 0 0:     0.000 sec done=       108 (=100.0%) skipped=         0 
    -> L=1 1 1 0:     0.001 sec done=        48 (=100.0%) skipped=         0 
    -> L=1 1 1 1:     0.000 sec done=         6 (=100.0%) skipped=         0 
    ->Total SHARK integral loop time =    0.006 sec
    -> Total Integral generation matrix time =    0.090 sec
    -> Number of small integrals   =        47
    -> Number of medium integrals  =        24
    -> Number of large integrals   =      5262
    -> Number of MB stored         =         0 MB

done (  0.1 sec)
Leaving conventional section

Diagonalization of the overlap matrix:
Smallest eigenvalue                        ... 2.249e-01
Time for diagonalization                   ...    0.000 sec
Threshold for overlap eigenvalues          ... 1.000e-07
Number of eigenvalues below threshold      ... 0
Time for construction of square roots      ...    0.017 sec
Total time needed                          ...    0.101 sec

-------------------
DFT GRID GENERATION
-------------------

General Integration Accuracy     IntAcc      ... 4.388
Radial Grid Type                 RadialGrid  ... OptM3 with GC (2021)
Angular Grid (max. ang.)         AngularGrid ... 4 (Lebedev-302)
Angular grid pruning method      GridPruning ... 4 (adaptive)
Weight generation scheme         WeightScheme... mBecke (2022)
Basis function cutoff            BFCut       ... 1.0000e-11
Integration weight cutoff        WCut        ... 1.0000e-14
Partially contracted basis set               ... off
Rotationally invariant grid construction     ... off
Angular grids for H and He will be reduced by one unit

Total number of grid points                  ...    25305
Total number of batches                      ...      398
Average number of points per batch           ...       63
Average number of grid points per atom       ...     4218
Grids setup in   0.9 sec
Initializing property integral containers    ... done (  0.3 sec)

SHARK setup successfully completed in   1.8 seconds

Maximum memory used throughout the entire STARTUP-calculation: 29.5 MB


           ************************************************************
           *        Program running with 2 parallel MPI-processes     *
           *              working on a common directory               *
           ************************************************************
Occupation numbers will be reassigned to an Aufbau configuration
             **** ENERGY FILE WAS UPDATED (CH₃OH.en.tmp) ****
Finished Guess after   0.7 sec
Maximum memory used throughout the entire GUESS-calculation: 2.2 MB


           ************************************************************
           *        Program running with 2 parallel MPI-processes     *
           *              working on a common directory               *
           ************************************************************

 InCore treatment chosen for four center integrals:
   Memory dedicated               ...    1000 MB
   Memory needed                  ...      0 MB
   Number of tiny    integrals    ...      47
   Number of small   integrals    ...      24
   Number of regular integrals    ...    5262

----------------------------------------D-I-I-S--------------------------------------------
Iteration    Energy (Eh)           Delta-E    RMSDP     MaxDP     DIISErr   Damp  Time(sec)
-------------------------------------------------------------------------------------------
    1    -114.2641379449925552     0.00e+00  1.26e-03  3.77e-03  1.56e-02  0.700   0.6
    2    -114.2642555318325464    -1.18e-04  1.15e-03  3.40e-03  1.12e-02  0.700   0.7
                               ***Turning on AO-DIIS***
    3    -114.2643484113288963    -9.29e-05  1.05e-03  2.99e-03  8.13e-03  0.700   0.5
    4    -114.2644193615162038    -7.10e-05  2.78e-03  7.70e-03  5.88e-03  0.000   0.5
                              *** Initializing SOSCF ***
---------------------------------------S-O-S-C-F--------------------------------------
Iteration    Energy (Eh)           Delta-E    RMSDP     MaxDP     MaxGrad    Time(sec)
--------------------------------------------------------------------------------------
    5    -114.2646145792286774    -1.95e-04  3.18e-04  7.05e-04  4.60e-04     0.7
    6    -114.2646161805549951    -1.60e-06  1.64e-04  4.21e-04  1.92e-04     0.5
    7    -114.2646165307448740    -3.50e-07  1.15e-04  3.23e-04  8.78e-05     0.5
    8    -114.2646166023552183    -7.16e-08  6.30e-06  1.92e-05  7.30e-06     0.5
    9    -114.2646166028503245    -4.95e-10  3.73e-06  1.01e-05  2.67e-06     0.5
                 **** Energy Check signals convergence ****

               *****************************************************
               *                     SUCCESS                       *
               *           SCF CONVERGED AFTER   9 CYCLES          *
               *****************************************************

             **** ENERGY FILE WAS UPDATED (CH₃OH.en.tmp) ****

----------------
TOTAL SCF ENERGY
----------------

Total Energy       :       -114.26461660293531 Eh           -3109.29829 eV

Components:
Nuclear Repulsion  :         40.37585847062032 Eh            1098.68296 eV
Electronic Energy  :       -154.64047507355562 Eh           -4207.98126 eV
One Electron Energy:       -236.20975550139360 Eh           -6427.59422 eV
Two Electron Energy:         81.56928042783798 Eh            2219.61296 eV

Virial components:
Potential Energy   :       -228.63222321978409 Eh           -6221.39908 eV
Kinetic Energy     :        114.36760661684879 Eh            3112.10079 eV
Virial Ratio       :          1.99909948265108

---------------
SCF CONVERGENCE
---------------

  Last Energy change         ...    4.9511e-10  Tolerance :   1.0000e-08
  Last MAX-Density change    ...    1.0121e-05  Tolerance :   1.0000e-07
  Last RMS-Density change    ...    3.7297e-06  Tolerance :   5.0000e-09
  Last DIIS Error            ...    4.6033e-04  Tolerance :   5.0000e-07
  Last Orbital Gradient      ...    2.6748e-06  Tolerance :   1.0000e-05
  Last Orbital Rotation      ...    5.0260e-06  Tolerance :   1.0000e-05


Total SCF time: 0 days 0 hours 0 min 6 sec 
Finished LeanSCF after   6.5 sec

Maximum memory used throughout the entire LEANSCF-calculation: 51.2 MB


           ************************************************************
           *        Program running with 2 parallel MPI-processes     *
           *              working on a common directory               *
           ************************************************************

------------------------------------------------------------------------------
                         ORCA PROPERTY INTEGRAL CALCULATIONS
------------------------------------------------------------------------------

GBWName                                   ... CH₃OH.gbw
Number of atoms                           ...      6
Number of basis functions                 ...     14
Max core memory                           ...   1000 MB

Dipole integrals                          ... YES
Quadrupole integrals                      ...  NO
Linear momentum integrals                 ...  NO
Angular momentum integrals                ...  NO
Higher moments length integrals           ...  NO
Higher moments velocity integrals         ...  NO
Kinetic energy integrals                  ...  NO
GIAO right hand sides                     ...  NO
GIAO dipole derivative integrals          ...  NO
SOC integrals                             ...  NO
EPR diamagnetic integrals (GIAO)          ...  NO
EPR gauge integrals                       ...  NO
Field gradient integrals                  ...  NO (   0 nuclei)
Spin-dipole/Fermi contact integrals       ...  NO (   0 nuclei)
Contact density integrals                 ...  NO (   0 nuclei)
Nucleus-orbit integrals                   ...  NO (   0 nuclei)
Geometric perturbations                   ...  NO (   6 nuclei)

Choice of electric origin   ... Center of mass
Position of electric origin ... (  1.3082, -0.0034,  0.0432) 
Choice of magnetic origin   ... GIAO
Position of magnetic origin ... (  0.0000,  0.0000,  0.0000) 

Calculating integrals                     ... Electric Dipole (Length)     done (  0.1 sec)

Property integrals calculated in   0.1 sec

Maximum memory used throughout the entire PROPINT-calculation: 2.3 MB


-------------------------------------------------------------------------------
                          DFT DISPERSION CORRECTION                            
                                                                               
                              DFTD3 V3.1  Rev 1                                
                          USING Becke-Johnson damping                          
-------------------------------------------------------------------------------
-------------------------   ----------------
Dispersion correction           -0.011817789
-------------------------   ----------------

------------------   -----------------
gCP+bas correction        -0.013492647
------------------   -----------------
----------------------------   ----------------
Total correction to HF/MINIX       -0.025310436
----------------------------   ----------------


-------------------------   --------------------
FINAL SINGLE POINT ENERGY      -114.289927039313
-------------------------   --------------------



           ************************************************************
           *        Program running with 2 parallel MPI-processes     *
           *              working on a common directory               *
           ************************************************************
------------------------------------------------------------------------------
                         ORCA SCF GRADIENT CALCULATION
------------------------------------------------------------------------------

Nuc. rep. gradient        (SHARK) ... done (  0.0 sec)
HCore & Overlap gradient  (SHARK) ... done (  0.0 sec)
Two-electron gradient     (SHARK) ... done (  0.0 sec)
Dispersion correction             ... done (  0.1 sec)

-------------------
DISPERSION GRADIENT
-------------------

   1   C   :   -0.000319815    0.000000944   -0.000115771
   2   O   :    0.000960041   -0.000004049   -0.000010508
   3   H   :   -0.000471437    0.000488778   -0.000062127
   4   H   :   -0.000560762   -0.000264040    0.000357739
   5   H   :   -0.000392134   -0.000225701   -0.000424711
   6   H   :    0.000784106    0.000004067    0.000255377

Difference to translation invariance:
           :   -0.0000000000   -0.0000000000   -0.0000000000

Difference to rotation invariance:
           :   -0.0000000000   -0.0000000000    0.0000000000

Norm of the Dispersion gradient    ...    0.0017549358
RMS gradient                       ...    0.0004136423
MAX gradient                       ...    0.0009600411
gCP correction                   ... done

------------------
CARTESIAN GRADIENT
------------------

   1   C   :    0.052683171   -0.001791587   -0.005804675
   2   O   :   -0.011293275    0.003392737    0.012390387
   3   H   :   -0.012542786   -0.003608246   -0.000471845
   4   H   :   -0.012697215    0.001860247   -0.002191485
   5   H   :   -0.014702333    0.002015001    0.004771184
   6   H   :   -0.001447562   -0.001868152   -0.008693566

Difference to translation invariance:
           :   -0.0000000000    0.0000000000    0.0000000000

Difference to rotation invariance:
           :    0.0000000679    0.0000006040   -0.0000004347

Norm of the Cartesian gradient     ...    0.0613936759
RMS gradient                       ...    0.0144706282
MAX gradient                       ...    0.0526831710

-------
TIMINGS
-------

Total SCF gradient time     ....        0.254 sec

Densities                   ....       0.000 sec  (  0.0%)
One electron gradient       ....       0.006 sec  (  2.4%)
Two electron gradient       ....       0.020 sec  (  7.8%)

Maximum memory used throughout the entire SCFGRAD-calculation: 22.9 MB
------------------------------------------------------------------------------
                         ORCA GEOMETRY RELAXATION STEP
------------------------------------------------------------------------------

Reading the OPT-File                    .... done
Getting information on internals        .... done
Copying old internal coords+grads       .... done
Making the new internal coordinates     .... (2022 redundants) done
Validating the new internal coordinates .... (2022 redundants) done
Calculating the B-matrix                .... done
Calculating the G,G- and P matrices     .... done
Transforming gradient to internals      .... done
Projecting the internal gradient        .... done
Number of atoms                         ....   6
Number of internal coordinates          ....  15
Current Energy                          ....  -114.289927039 Eh
Current gradient norm                   ....     0.061393676 Eh/bohr
Maximum allowed component of the step   ....  0.300
Current trust radius                    ....  0.300
Updating the Hessian (BFGS)             .... done
Forming the augmented Hessian           .... done
Diagonalizing the augmented Hessian     .... done
Last element of RFO vector              ....  0.980300289
Lowest eigenvalues of augmented Hessian:
 -0.006369760  0.018839897  0.152280592  0.153132722  0.188323536
Length of the computed step             ....  0.201482031
The final length of the internal step   ....  0.201482031
Converting the step to Cartesian space:
 Initial RMS(Int)=    0.0520224366
Transforming coordinates:
 Iter   0:  RMS(Cart)=    0.0414094318 RMS(Int)=    0.0507598052
 Iter   5:  RMS(Cart)=    0.0000000301 RMS(Int)=    0.0000000306
done
Storing new coordinates                 .... done
The predicted energy change is          ....    -0.003314170
Previously predicted energy change      ....    -0.011657403
Actually observed energy change         ....    -0.014199135
Ratio of predicted to observed change   ....     1.218035847
New trust radius                        ....     0.450000000

                                .--------------------.
          ----------------------|Geometry convergence|-------------------------
          Item                value                   Tolerance       Converged
          ---------------------------------------------------------------------
          Energy change      -0.0141991347            0.0000050000      NO
          RMS gradient        0.0093081454            0.0001000000      NO
          MAX gradient        0.0151873353            0.0003000000      NO
          RMS step            0.0520224366            0.0020000000      NO
          MAX step            0.0816223584            0.0040000000      NO
          -------------------------------------------------------------------------
          ........................................................
          Max(Bonds)      0.0138      Max(Angles)    4.68
          Max(Dihed)        3.45      Max(Improp)    0.00
          ---------------------------------------------------------------------

The optimization has not yet converged - more geometry cycles are needed


    ---------------------------------------------------------------------------
                         Redundant Internal Coordinates
                            (Angstroem and degrees)

        Definition                    Value    dE/dq     Step     New-Value
    ----------------------------------------------------------------------------
     1. B(O   1,C   0)                1.3973 -0.012844  0.0138    1.4110   
     2. B(H   2,C   0)                1.1022  0.002093 -0.0037    1.0985   
     3. B(H   3,C   0)                1.1020  0.002900 -0.0050    1.0970   
     4. B(H   4,C   0)                1.0980  0.001510 -0.0029    1.0952   
     5. B(H   5,O   1)                0.9664 -0.008600  0.0083    0.9747   
     6. A(O   1,C   0,H   3)          116.60  0.009979   -2.86    113.75   
     7. A(O   1,C   0,H   2)          115.60  0.010352   -3.10    112.49   
     8. A(O   1,C   0,H   4)          113.33  0.015187   -4.68    108.65   
     9. A(H   2,C   0,H   4)          103.30 -0.014291    4.49    107.79   
    10. A(H   3,C   0,H   4)          102.92 -0.014387    4.48    107.39   
    11. A(H   2,C   0,H   3)          103.38 -0.013407    4.45    107.83   
    12. A(C   0,O   1,H   5)          111.02  0.003683   -1.55    109.47   
    13. D(H   5,O   1,C   0,H   3)    -31.59  0.001563   -3.45    -35.04   
    14. D(H   5,O   1,C   0,H   4)   -150.82  0.001027   -3.06   -153.88   
    15. D(H   5,O   1,C   0,H   2)     90.20  0.000431   -2.53     87.68   
    ----------------------------------------------------------------------------

Geometry step timings:
Preparation and reading OPT file:      0.018 s (13.395 %)
Internal coordinates            :      0.021 s (15.466 %)
B/P matrices and projection     :      0.008 s ( 5.758 %)
Hessian update/contruction      :      0.032 s (23.350 %)
Making the step                 :      0.003 s ( 2.555 %)
Converting the step to Cartesian:      0.006 s ( 4.432 %)
Storing new data                :      0.007 s ( 4.962 %)
Checking convergence            :      0.013 s ( 9.883 %)
Final printing                  :      0.027 s (20.192 %)
Total time                      :      0.136 s

Time for energy+gradient        :     12.343 s
Time for complete geometry iter :     13.268 s

         *************************************************************
         *                GEOMETRY OPTIMIZATION CYCLE   3            *
         *************************************************************
---------------------------------
CARTESIAN COORDINATES (ANGSTROEM)
---------------------------------
  C     -0.053609    0.000935    0.021408
  O      1.355942   -0.025027   -0.037189
  H     -0.451451    1.024841    0.022139
  H     -0.465418   -0.517983    0.895741
  H     -0.445026   -0.504206   -0.867983
  H      1.719562    0.022440    0.865884

----------------------------
CARTESIAN COORDINATES (A.U.)
----------------------------
  NO LB      ZA    FRAG     MASS         X           Y           Z
   0 C     6.0000    0    12.011   -0.101306    0.001767    0.040455
   1 O     8.0000    0    15.999    2.562359   -0.047294   -0.070277
   2 H     1.0000    0     1.008   -0.853119    1.936669    0.041837
   3 H     1.0000    0     1.008   -0.879513   -0.978846    1.692704
   4 H     1.0000    0     1.008   -0.840976   -0.952810   -1.640251
   5 H     1.0000    0     1.008    3.249501    0.042405    1.636284

--------------------------------
INTERNAL COORDINATES (ANGSTROEM)
--------------------------------
 C      0   0   0     0.000000000000     0.00000000     0.00000000
 O      1   0   0     1.411007439313     0.00000000     0.00000000
 H      1   2   0     1.098481943448   112.27041915     0.00000000
 H      1   2   3     1.096959489012   113.54184570   237.50186610
 H      1   2   3     1.095167126720   108.35010475   118.59122318
 H      2   1   3     0.974686087663   109.46949536    87.55560352

---------------------------
INTERNAL COORDINATES (A.U.)
---------------------------
 C      0   0   0     0.000000000000     0.00000000     0.00000000
 O      1   0   0     2.666417633227     0.00000000     0.00000000
 H      1   2   0     2.075830036174   112.27041915     0.00000000
 H      1   2   3     2.072953014238   113.54184570   237.50186610
 H      1   2   3     2.069565940375   108.35010475   118.59122318
 H      2   1   3     1.841889772225   109.46949536    87.55560352



           ************************************************************
           *        Program running with 2 parallel MPI-processes     *
           *              working on a common directory               *
           ************************************************************
------------------------------------------------------------------------------
                   ___                                                        
                  /   \      - P O W E R E D   B Y -                         
                 /     \                                                     
                 |  |  |   _    _      __       _____    __    __             
                 |  |  |  | |  | |    /  \     |  _  \  |  |  /  |          
                  \  \/   | |  | |   /    \    | | | |  |  | /  /          
                 / \  \   | |__| |  /  /\  \   | |_| |  |  |/  /          
                |  |  |   |  __  | /  /__\  \  |    /   |      \           
                |  |  |   | |  | | |   __   |  |    \   |  |\   \          
                \     /   | |  | | |  |  |  |  | |\  \  |  | \   \       
                 \___/    |_|  |_| |__|  |__|  |_| \__\ |__|  \__/        
                                                                              
                      - O R C A' S   B I G   F R I E N D -                    
                                      &                                       
                       - I N T E G R A L  F E E D E R -                       
                                                                              
 v1 FN, 2020, v2 2021, v3 2022-2024                                           
------------------------------------------------------------------------------


----------------------
SHARK INTEGRAL PACKAGE
----------------------

[...]
Point Group:  C1, Symmetry Number:   1  
Rotational constants in cm-1:     4.263164     0.816837     0.787667 

Vibrational entropy computed according to the QRRHO of S. Grimme
Chem.Eur.J. 2012 18 9955 using a reference frequency of 100.0 cm-1


-------
ENTROPY
-------

The entropy contributions are T*S = T*(S(el)+S(vib)+S(rot)+S(trans))
     S(el)   - electronic entropy
     S(vib)  - vibrational entropy
     S(rot)  - rotational entropy
     S(trans)- translational entropy
The entropies will be listed as multiplied by the temperature to get
units of energy

Electronic entropy                ...      0.00000000 Eh      0.00 kcal/mol
Vibrational entropy               ...      0.00137833 Eh      0.86 kcal/mol
Rotational entropy                ...      0.01267907 Eh      7.96 kcal/mol
Translational entropy             ...      0.02408588 Eh     15.11 kcal/mol
-----------------------------------------------------------------------
Final entropy term                ...      0.03814327 Eh     23.94 kcal/mol

In case the symmetry of your molecule has not been determined correctly
or in case you have a reason to use a different symmetry number we print 
out the resulting rotational entropy values for sn=1,12:

 non-linear molecules -----------------------------------
|  sn= 1 | S(rot)=       0.01267907 Eh      7.96 kcal/mol|
|  sn= 2 | S(rot)=       0.01180104 Eh      7.41 kcal/mol|
|  sn= 3 | S(rot)=       0.01128743 Eh      7.08 kcal/mol|
|  sn= 4 | S(rot)=       0.01092302 Eh      6.85 kcal/mol|
|  sn= 5 | S(rot)=       0.01064036 Eh      6.68 kcal/mol|
|  sn= 6 | S(rot)=       0.01040941 Eh      6.53 kcal/mol|
|  sn= 7 | S(rot)=       0.01021415 Eh      6.41 kcal/mol|
|  sn= 8 | S(rot)=       0.01004500 Eh      6.30 kcal/mol|
|  sn= 9 | S(rot)=       0.00989580 Eh      6.21 kcal/mol|
|  sn=10 | S(rot)=       0.00976234 Eh      6.13 kcal/mol|
|  sn=11 | S(rot)=       0.00964161 Eh      6.05 kcal/mol|
|  sn=12 | S(rot)=       0.00953139 Eh      5.98 kcal/mol|
 linear molecules ---------------------------------------
|  Dinfh | S(rot)=       0.00781973 Eh      4.91 kcal/mol|
|  Cinfv | S(rot)=       0.00869775 Eh      5.46 kcal/mol|
 --------------------------------------------------------


-------------------
GIBBS FREE ENERGY
-------------------

The Gibbs free energy is G = H - T*S

Total enthalpy                    ...   -114.23035887 Eh 
Total entropy correction          ...     -0.03814327 Eh    -23.94 kcal/mol
-----------------------------------------------------------------------
Final Gibbs free energy         ...   -114.26850214 Eh

For completeness - the Gibbs free energy minus the electronic energy
G-E(el)                           ...      0.02628961 Eh     16.50 kcal/mol


The first frequency considered to be a vibration is 6
The total number of vibrations considered is 12


--------------------------
THERMOCHEMISTRY AT 500.00K
--------------------------

Temperature         ...   500.00 K
Pressure            ...     1.00 atm
Total Mass          ...    32.04 AMU
Quasi RRHO          ...     True
Cut-Off Frequency   ...     1.00 cm^-1

Throughout the following assumptions are being made:
  (1) The electronic state is orbitally nondegenerate
  (2) There are no thermally accessible electronically excited states
  (3) Hindered rotations indicated by low frequency modes are not
      treated as such but are treated as vibrations and this may
      cause some error
  (4) All equations used are the standard statistical mechanics
      equations for an ideal gas
  (5) All vibrations are strictly harmonic

freq.     356.48  E(vib)   ...       0.57 
freq.    1160.42  E(vib)   ...       0.12 
freq.    1238.34  E(vib)   ...       0.10 
freq.    1284.68  E(vib)   ...       0.09 
freq.    1568.36  E(vib)   ...       0.05 
freq.    1680.43  E(vib)   ...       0.04 
freq.    1722.04  E(vib)   ...       0.03 
freq.    1735.45  E(vib)   ...       0.03 
freq.    3473.61  E(vib)   ...       0.00 
freq.    3598.47  E(vib)   ...       0.00 
freq.    3629.01  E(vib)   ...       0.00 
freq.    4213.63  E(vib)   ...       0.00 

------------
INNER ENERGY
------------

The inner energy is: U= E(el) + E(ZPE) + E(vib) + E(rot) + E(trans)
    E(el)   - is the total energy from the electronic structure calculation
              = E(kin-el) + E(nuc-el) + E(el-el) + E(nuc-nuc)
    E(ZPE)  - the the zero temperature vibrational energy from the frequency calculation
    E(vib)  - the the finite temperature correction to E(ZPE) due to population
              of excited vibrational states
    E(rot)  - is the rotational thermal energy
    E(trans)- is the translational thermal energy

Summary of contributions to the inner energy U:
Electronic energy                ...   -114.29479175 Eh
Zero point energy                ...      0.05845985 Eh      36.68 kcal/mol
Thermal vibrational correction   ...      0.00166775 Eh       1.05 kcal/mol
Thermal rotational correction    ...      0.00237510 Eh       1.49 kcal/mol
Thermal translational correction ...      0.00237510 Eh       1.49 kcal/mol
-----------------------------------------------------------------------
Total thermal energy                   -114.22991395 Eh


Summary of corrections to the electronic energy:
(perhaps to be used in another calculation)
Total thermal correction                  0.00641795 Eh       4.03 kcal/mol
Non-thermal (ZPE) correction              0.05845985 Eh      36.68 kcal/mol
-----------------------------------------------------------------------
Total correction                          0.06487780 Eh      40.71 kcal/mol


--------
ENTHALPY
--------

The enthalpy is H = U + kB*T
                kB is Boltzmann's constant
Total thermal energy              ...   -114.22991395 Eh 
Thermal Enthalpy correction       ...      0.00158345 Eh       0.99 kcal/mol
-----------------------------------------------------------------------
Total Enthalpy                    ...   -114.22833050 Eh


Note: Only C1 symmetry has been detected, increase convergence thresholds 
      if your molecule has a higher symmetry. Symmetry factor of 1.0 is   
      used for the rotational entropy correction. 
 

Note: Rotational entropy computed according to Herzberg 
Infrared and Raman Spectra, Chapter V,1, Van Nostrand Reinhold, 1945 
Point Group:  C1, Symmetry Number:   1  
Rotational constants in cm-1:     4.263164     0.816837     0.787667 

Vibrational entropy computed according to the QRRHO of S. Grimme
Chem.Eur.J. 2012 18 9955 using a reference frequency of 100.0 cm-1


-------
ENTROPY
-------

The entropy contributions are T*S = T*(S(el)+S(vib)+S(rot)+S(trans))
     S(el)   - electronic entropy
     S(vib)  - vibrational entropy
     S(rot)  - rotational entropy
     S(trans)- translational entropy
The entropies will be listed as multiplied by the temperature to get
units of energy

Electronic entropy                ...      0.00000000 Eh      0.00 kcal/mol
Vibrational entropy               ...      0.00256590 Eh      1.61 kcal/mol
Rotational entropy                ...      0.01637882 Eh     10.28 kcal/mol
Translational entropy             ...      0.03099066 Eh     19.45 kcal/mol
-----------------------------------------------------------------------
Final entropy term                ...      0.04993538 Eh     31.33 kcal/mol

In case the symmetry of your molecule has not been determined correctly
or in case you have a reason to use a different symmetry number we print 
out the resulting rotational entropy values for sn=1,12:

 non-linear molecules -----------------------------------
|  sn= 1 | S(rot)=       0.01637882 Eh     10.28 kcal/mol|
|  sn= 2 | S(rot)=       0.01528129 Eh      9.59 kcal/mol|
|  sn= 3 | S(rot)=       0.01463928 Eh      9.19 kcal/mol|
|  sn= 4 | S(rot)=       0.01418377 Eh      8.90 kcal/mol|
|  sn= 5 | S(rot)=       0.01383044 Eh      8.68 kcal/mol|
|  sn= 6 | S(rot)=       0.01354175 Eh      8.50 kcal/mol|
|  sn= 7 | S(rot)=       0.01329767 Eh      8.34 kcal/mol|
|  sn= 8 | S(rot)=       0.01308624 Eh      8.21 kcal/mol|
|  sn= 9 | S(rot)=       0.01289974 Eh      8.09 kcal/mol|
|  sn=10 | S(rot)=       0.01273291 Eh      7.99 kcal/mol|
|  sn=11 | S(rot)=       0.01258200 Eh      7.90 kcal/mol|
|  sn=12 | S(rot)=       0.01244422 Eh      7.81 kcal/mol|
 linear molecules ---------------------------------------
|  Dinfh | S(rot)=       0.01012798 Eh      6.36 kcal/mol|
|  Cinfv | S(rot)=       0.01122551 Eh      7.04 kcal/mol|
 --------------------------------------------------------


-------------------
GIBBS FREE ENERGY
-------------------

The Gibbs free energy is G = H - T*S

Total enthalpy                    ...   -114.22833050 Eh 
Total entropy correction          ...     -0.04993538 Eh    -31.33 kcal/mol
-----------------------------------------------------------------------
Final Gibbs free energy         ...   -114.27826589 Eh

For completeness - the Gibbs free energy minus the electronic energy
G-E(el)                           ...      0.01652586 Eh     10.37 kcal/mol


The first frequency considered to be a vibration is 6
The total number of vibrations considered is 12


--------------------------
THERMOCHEMISTRY AT 600.00K
--------------------------

Temperature         ...   600.00 K
Pressure            ...     1.00 atm
Total Mass          ...    32.04 AMU
Quasi RRHO          ...     True
Cut-Off Frequency   ...     1.00 cm^-1

Throughout the following assumptions are being made:
  (1) The electronic state is orbitally nondegenerate
  (2) There are no thermally accessible electronically excited states
  (3) Hindered rotations indicated by low frequency modes are not
      treated as such but are treated as vibrations and this may
      cause some error
  (4) All equations used are the standard statistical mechanics
      equations for an ideal gas
  (5) All vibrations are strictly harmonic

freq.     356.48  E(vib)   ...       0.75 
freq.    1160.42  E(vib)   ...       0.22 
freq.    1238.34  E(vib)   ...       0.19 
freq.    1284.68  E(vib)   ...       0.18 
freq.    1568.36  E(vib)   ...       0.11 
freq.    1680.43  E(vib)   ...       0.09 
freq.    1722.04  E(vib)   ...       0.08 
freq.    1735.45  E(vib)   ...       0.08 
freq.    3473.61  E(vib)   ...       0.00 
freq.    3598.47  E(vib)   ...       0.00 
freq.    3629.01  E(vib)   ...       0.00 
freq.    4213.63  E(vib)   ...       0.00 

------------
INNER ENERGY
------------

The inner energy is: U= E(el) + E(ZPE) + E(vib) + E(rot) + E(trans)
    E(el)   - is the total energy from the electronic structure calculation
              = E(kin-el) + E(nuc-el) + E(el-el) + E(nuc-nuc)
    E(ZPE)  - the the zero temperature vibrational energy from the frequency calculation
    E(vib)  - the the finite temperature correction to E(ZPE) due to population
              of excited vibrational states
    E(rot)  - is the rotational thermal energy
    E(trans)- is the translational thermal energy

Summary of contributions to the inner energy U:
Electronic energy                ...   -114.29479175 Eh
Zero point energy                ...      0.05845985 Eh      36.68 kcal/mol
Thermal vibrational correction   ...      0.00271087 Eh       1.70 kcal/mol
Thermal rotational correction    ...      0.00285012 Eh       1.79 kcal/mol
Thermal translational correction ...      0.00285012 Eh       1.79 kcal/mol
-----------------------------------------------------------------------
Total thermal energy                   -114.22792079 Eh


Summary of corrections to the electronic energy:
(perhaps to be used in another calculation)
Total thermal correction                  0.00841111 Eh       5.28 kcal/mol
Non-thermal (ZPE) correction              0.05845985 Eh      36.68 kcal/mol
-----------------------------------------------------------------------
Total correction                          0.06687096 Eh      41.96 kcal/mol


--------
ENTHALPY
--------

The enthalpy is H = U + kB*T
                kB is Boltzmann's constant
Total thermal energy              ...   -114.22792079 Eh 
Thermal Enthalpy correction       ...      0.00190014 Eh       1.19 kcal/mol
-----------------------------------------------------------------------
Total Enthalpy                    ...   -114.22602065 Eh


Note: Only C1 symmetry has been detected, increase convergence thresholds 
      if your molecule has a higher symmetry. Symmetry factor of 1.0 is   
      used for the rotational entropy correction. 
 

Note: Rotational entropy computed according to Herzberg 
Infrared and Raman Spectra, Chapter V,1, Van Nostrand Reinhold, 1945 
Point Group:  C1, Symmetry Number:   1  
Rotational constants in cm-1:     4.263164     0.816837     0.787667 

Vibrational entropy computed according to the QRRHO of S. Grimme
Chem.Eur.J. 2012 18 9955 using a reference frequency of 100.0 cm-1


-------
ENTROPY
-------

The entropy contributions are T*S = T*(S(el)+S(vib)+S(rot)+S(trans))
     S(el)   - electronic entropy
     S(vib)  - vibrational entropy
     S(rot)  - rotational entropy
     S(trans)- translational entropy
The entropies will be listed as multiplied by the temperature to get
units of energy

Electronic entropy                ...      0.00000000 Eh      0.00 kcal/mol
Vibrational entropy               ...      0.00421468 Eh      2.64 kcal/mol
Rotational entropy                ...      0.02017423 Eh     12.66 kcal/mol
Translational entropy             ...      0.03805486 Eh     23.88 kcal/mol
-----------------------------------------------------------------------
Final entropy term                ...      0.06244376 Eh     39.18 kcal/mol

In case the symmetry of your molecule has not been determined correctly
or in case you have a reason to use a different symmetry number we print 
out the resulting rotational entropy values for sn=1,12:

 non-linear molecules -----------------------------------
|  sn= 1 | S(rot)=       0.02017423 Eh     12.66 kcal/mol|
|  sn= 2 | S(rot)=       0.01885719 Eh     11.83 kcal/mol|
|  sn= 3 | S(rot)=       0.01808677 Eh     11.35 kcal/mol|
|  sn= 4 | S(rot)=       0.01754016 Eh     11.01 kcal/mol|
|  sn= 5 | S(rot)=       0.01711617 Eh     10.74 kcal/mol|
|  sn= 6 | S(rot)=       0.01676974 Eh     10.52 kcal/mol|
|  sn= 7 | S(rot)=       0.01647684 Eh     10.34 kcal/mol|
|  sn= 8 | S(rot)=       0.01622312 Eh     10.18 kcal/mol|
|  sn= 9 | S(rot)=       0.01599932 Eh     10.04 kcal/mol|
|  sn=10 | S(rot)=       0.01579913 Eh      9.91 kcal/mol|
|  sn=11 | S(rot)=       0.01561803 Eh      9.80 kcal/mol|
|  sn=12 | S(rot)=       0.01545271 Eh      9.70 kcal/mol|
 linear molecules ---------------------------------------
|  Dinfh | S(rot)=       0.01250000 Eh      7.84 kcal/mol|
|  Cinfv | S(rot)=       0.01381704 Eh      8.67 kcal/mol|
 --------------------------------------------------------


-------------------
GIBBS FREE ENERGY
-------------------

The Gibbs free energy is G = H - T*S

Total enthalpy                    ...   -114.22602065 Eh 
Total entropy correction          ...     -0.06244376 Eh    -39.18 kcal/mol
-----------------------------------------------------------------------
Final Gibbs free energy         ...   -114.28846442 Eh

For completeness - the Gibbs free energy minus the electronic energy
G-E(el)                           ...      0.00632733 Eh      3.97 kcal/mol


Maximum memory used throughout the entire PROP-calculation: 23.0 MB

--------------------------------
SUGGESTED CITATIONS FOR THIS RUN
--------------------------------

Below you find a list of papers that are relevant to this ORCA run
We neither can nor want to force you to cite these papers, but we appreciate if you do
You receive ORCA, which is the product of decades of hard work by many enthusiastic individuals, for free
The only thing we kindly ask in return is that you cite our papers,
We deeply appreciate it, if you show your appreciation for ORCA by not just citing the generic ORCA reference.

Please note that relegating all ORCA citations to the supporting information does *not* help us.
SI sections are not indexed - citations you put there will not count into any citation statistics
But we need these citations in order to attract the funding resources that allow us to do what we are doing

Therefore, if you are a happy ORCA user, please consider citing a few of the papers listed below in the main body of your paper

In addition to the list printed below, the program has created the file CH₃OH.bibtex that contains the list in bibtex format
You can import this file easily into all common literature databanks and citation aid programs


List of essential papers. We consider these as the minimum necessary citations

  1. Neese, F.
     Software update: the ORCA program system, version 6.0
     WIRES Comput. Molec. Sci. 2025 15(1), e70019
     doi.org/10.1002/wcms.7019

List of papers to cite with high priority. The work reported in these papers was absolutely
necessary for this run to complete.
Our perspective: the developers of density functionals and basis sets usually get cited in chemistry papers
Good! But without the algorithms to do something with them, the functionals or basis sets would not do anything.
Hence, in our opinion, the algorithm design and method developments papers are equally worthy of getting cited

  1. Grimme, S.; Antony, J.; Ehrlich, S.; Krieg, H.
     A consistent and accurate ab initio parametrization of density functional dispersion correction (DFT-D) for the 94 elements H-Pu
     J. Chem. Phys. 2010 132 , 154104
     doi.org/10.1063/1.3382344
  2. Grimme, S.; Ehrlich, S.; Goerigk, L.
     Effect of the damping function in dispersion corrected density functional theory
     J. Comput. Chem. 2011 32(7), 1456-1465
     doi.org/10.1002/jcc.21759
  3. Bykov, D.; Petrenko, T.; Izsak, R.; Kossmann, S.; Becker, U.; Valeev, E.; Neese, F.
     Efficient implementation of the analytic second derivatives of Hartree-Fock and hybrid DFT energies: a detailed analysis of different approximations
     Molec. Phys. 2015 113 , 1961-1977
     doi.org/10.1080/00268976.2015.1025114
  4. Neese, F.
     The SHARK Integral Generation and Digestion System
     J. Comp. Chem. 2022 44(3), 381
     doi.org/10.1002/jcc.26942

List of suggested additional citations. These are papers that are important in the 'surrounding' of 
of this run, or papers that preceded the highly important papers. If you like your results we are grateful for a citation.

  1. Neese, F.
     The ORCA program system
     WIRES Comput. Molec. Sci. 2012 2(1), 73-78
     doi.org/10.1002/wcms.81
  2. Neese, F.
     Software update: the ORCA program system, version 4.0
     WIRES Comput. Molec. Sci. 2018 8(1), 1-6
     doi.org/10.1002/wcms.1327
  3. Neese, F.; Wennmohs, F.; Becker, U.; Riplinger, C.
     The ORCA quantum chemistry program package
     J. Chem. Phys. 2020 152(22), 224108
     doi.org/10.1063/5.0004608
  4. Neese, F.
     Software update: The ORCA program system—Version 5.0
     WIRES Comput. Molec. Sci. 2022 12(1), e1606
     doi.org/10.1002/wcms.1606

List of optional additional citations

  1. Neese, F.
     Approximate second-order SCF convergence for spin unrestricted wavefunctions
     Chem. Phys. Lett. 2000 325(1-3), 93-98
     doi.org/10.1016/s0009-2614(00)00662-x

Timings for individual modules:

Sum of individual times          ...      143.068 sec (=   2.384 min)
Startup calculation              ...       25.067 sec (=   0.418 min)  17.5 %
SCF iterations                   ...       73.600 sec (=   1.227 min)  51.4 %
Property integrals               ...        7.703 sec (=   0.128 min)   5.4 %
SCF Response                     ...       25.071 sec (=   0.418 min)  17.5 %
Property calculations            ...        3.204 sec (=   0.053 min)   2.2 %
SCF Gradient evaluation          ...        6.965 sec (=   0.116 min)   4.9 %
Geometry relaxation              ...        1.457 sec (=   0.024 min)   1.0 %
                             ****ORCA TERMINATED NORMALLY****
TOTAL RUN TIME: 0 days 0 hours 2 minutes 39 seconds 544 msec
