
                                 *****************
                                 * O   R   C   A *
                                 *****************

                                            #,                                       
                                            ###                                      
                                            ####                                     
                                            #####                                    
                                            ######                                   
                                           ########,                                 
                                     ,,################,,,,,                         
                               ,,#################################,,                 
                          ,,##########################################,,             
                       ,#########################################, ''#####,          
                    ,#############################################,,   '####,        
                  ,##################################################,,,,####,       
                ,###########''''           ''''###############################       
              ,#####''   ,,,,##########,,,,          '''####'''          '####       
            ,##' ,,,,###########################,,,                        '##       
           ' ,,###''''                  '''############,,,                           
         ,,##''                                '''############,,,,        ,,,,,,###''
      ,#''                                            '''#######################'''  
     '                                                          ''''####''''         
             ,#######,   #######,   ,#######,      ##                                
            ,#'     '#,  ##    ##  ,#'     '#,    #''#        ,####,    ,#,          
            ##       ##  ##   ,#'  ##            #'  '#       #'       ,# #          
            ##       ##  #######   ##           ,######,      #####,      #          
            '#,     ,#'  ##    ##  '#,     ,#' ,#      #,     #,   #      #          
             '#######'   ##     ##  '#######'  #'      '#     '####' #    #          



                #########################################################
                #                        -***-                          #
                #          Department of theory and spectroscopy        #
                #                                                       #
                #                      Frank Neese                      #
                #                                                       #
                #     Directorship, Architecture, Infrastructure        #
                #                    SHARK, DRIVERS                     #
                #        Core code/Algorithms in most modules           #
                #                                                       #
                #        Max Planck Institute fuer Kohlenforschung      #
                #                Kaiser Wilhelm Platz 1                 #
                #                 D-45470 Muelheim/Ruhr                 #
                #                      Germany                          #
                #                                                       #
                #                  All rights reserved                  #
                #                        -***-                          #
                #########################################################


                         Program Version 6.1.0  -  RELEASE   -
                                (GIT: $679e74b$)
                          ($2025-06-10 18:02:51 +0200$)


 With contributions from (in alphabetic order):
[Max-Planck-Institut fuer Kohlenforschung]                               
  Daniel Aravena         : Magnetic Suceptibility                        
  Michael Atanasov       : Ab Initio Ligand Field Theory (pilot matlab implementation)
  Alexander A. Auer      : GIAO ZORA, VPT2 properties, NMR spectrum      
  Ute Becker             : All parallelization in ORCA, NUMFREQ, NUMCALC 
  Giovanni Bistoni       : ED, misc. LED, open-shell LED, HFLD           
  Dmytro Bykov           : pre 5.0 version of the SCF Hessian            
  Marcos Casanova-Páez   : Triplet and SCS-CIS(D). UHF-(DLPNO)-IP/EA/STEOM-CCSD. UHF-CVS-IP/STEOM-CCSD   
  Vijay G. Chilkuri      : MRCI spin determinant printing, contributions to CSF-ICE 
  Pauline Colinet        : FMM embedding                                 
  Dipayan Datta          : RHF DLPNO-CCSD density                        
  Achintya Kumar Dutta   : EOM-CC, STEOM-CC                              
  Nicolas Foglia         : Exact transition moments, OPA infrastructure, MCD improvements    
  Dmitry Ganyushin       : Spin-Orbit,Spin-Spin,Magnetic field MRCI      
  Miquel Garcia-Rates    : C-PCM and meta-GGA Hessian, CCSD/C-PCM, Gaussian charge scheme 
  Tiago L. C. Gouveia    : GS-ROHF, GS-ROCIS                             
  Yang Guo               : DLPNO-NEVPT2, F12-NEVPT2, CIM, IAO-localization        
  Andreas Hansen         : Spin unrestricted coupled pair/coupled cluster methods 
  Ingolf Harden          : AUTO-CI MPn and infrastructure                
  Benjamin Helmich-Paris : MC-RPA, TRAH-(SCF,CASSCF), AVAS, COSX integrals, SCF dyn. polar., MC-PDFT, srDFT 
  Lee Huntington         : MR-EOM, pCC                                   
  Robert Izsak           : Overlap fitted RIJCOSX, COSX-SCS-MP3, EOM     
  Riya Kayal             : Wick's Theorem for AUTO-CI, AUTO-CI UHF-CCSDT 
  Emily Kempfer          : AUTO-CI RHF CISDT and CCSDT, approximate NEVPT4
  Christian Kollmar      : KDIIS, OOCD, Brueckner-CCSD(T), CCSD density, CASPT2, CASPT2-K, improved NEVPT2 
  Axel Koslowski         : Symmetry handling                             
  Simone Kossmann        : meta-GGA functionals, TD-DFT gradient, OOMP2, (MP2 Hessian; deprecated post 5.0) 
  Lucas Lang             : DCDCAS, Hyperfine gauge corrections, ICE-SOC+SSC
  Marvin Lechner         : AUTO-CI (C++ implementation), FIC-MRCC        
  Spencer Leger          : CASSCF response                               
  Dagmar Lenk            : GEPOL surface, SMD, ORCA-2-JSON               
  Dimitrios Liakos       : Extrapolation schemes; Compound Job, Property file
  Dimitrios Manganas     : Further ROCIS development; embedding schemes. LFT, Crystal Embedding 
  Dimitrios Pantazis     : SARC Basis sets                               
  Anastasios Papadopoulos: AUTO-CI, single reference methods and gradients 
  Taras Petrenko         : pre 6.0 DFT Hessian and TD-DFT gradient,  ECA, NRVS 
  Petra Pikulova         : Analytic Raman intensities                    
  Peter Pinski           : DLPNO-MP2, DLPNO-MP2 Gradient                 
  Shashank Vittal Rao    : ES-AILFT, MagRelax                            
  Christoph Reimann      : Effective Core Potentials                     
  Marius Retegan         : Local ZFS, SOC                                
  Christoph Riplinger    : Optimizer, TS searches, QM/MM, DLPNO-CCSD(T), (RO)-DLPNO pert. Triples 
  Michael Roemelt        : Original ROCIS implementation, recursive CI coupling coefficients
  Masaaki Saitow         : Open-shell DLPNO-CCSD energy and density      
  Barbara Sandhoefer     : DKH picture change effects                    
  Yorick L. A. Schmerwitz: GMF and freeze-and-release deltaSCF, NEB S-IDPP initial path                    
  Kantharuban Sivalingam : CASSCF convergence/infrastructure, NEVPT2, NEVPT3, NEVPT4(SD), FIC-MRCI and CEPA variants
  Bernardo de Souza      : ESD, SOC TD-DFT                               
  Georgi L. Stoychev     : AutoAux, RI-MP2 NMR, DLPNO-MP2 response, X2C  
  Van Anh Tran           : RI-MP2 g-tensors                              
  Willem Van den Heuvel  : Paramagnetic NMR                              
  Zikuan Wang            : NOTCH, Electric field optimization            
  Frank Wennmohs         : Technical directorship and infrastructure     
  Hang Xu                : AUTO-CI-Response properties                   
                                                                         
[FACCTs GmbH]                                                            
  Markus Bursch, Nicolas Foglia, Miquel Garcia-Rates, Ingolf Harden, Hagen Neugebauer, Anastasios Papadopoulos, 
  Christoph Riplinger, Bernardo de Souza, Georgi L. Stoychev                                                    
                                                                 
  APM, various basis sets, CI-OPT, improved COSX, DLPNO-Multilevel,           
  DOCKER, DRACO, updates on ESD, Fragmentator, GOAT, IRC, LR-CPCM, L-BFGS, MBIS, meta-GGA TD-DFT gradient, ML-optimized integration grids, 
  MM, NACMEs, nearIR, NEB, NEB-TS, NL-DFT gradient (VV10), 2- and 3-layer-ONIOM, interface openCOSMO-RS, QMMM,   
  Crystal-QMMM, RESP, rigid body optimization, SF, symmetry and pop. for TD-DFT, various functionals, SOLVATOR                                   
                                                                         
[Other institutions]                                                     
  V. Asgeirsson          : NEB                                           
  Christoph Bannwarth    : sTDA-DFT, sTD-DFT, PBEh-3c, B97-3c, D3        
  Giovanni Bistoni       : ETS/NOCV, ADLD/ADEX, COVALED                  
  Martin Brehm           : Molecular dynamics                            
  Ronald Cardenas        : ETS/NOCV                                      
  Martina Colucci        : COVALED                                       
  Sebastian Ehlert       : rSCAN, r2SCAN, r2SCAN-3c, D4, dhf basis sets  
  Marvin Friede          : D4 for Fr, Ra, Ac-Lr                          
  Lars Goerigk           : TD-DFT with DH, B97 family of functionals     
  Stefan Grimme          : VdW corrections, initial TS optimization, DFT functionals, gCP, sTDA/sTD-DF 
  Waldemar Hujo          : DFT-NL                                        
  H. Jonsson             : NEB                                           
  Holger Kruse           : gCP                                           
  Marcel Mueller         : wB97X-3c, vDZP basis set                      
  Hagen Neugebauer       : wr2SCAN, Native XTB                           
  Gianluca Regni         : ADLD/ADEX                                     
  Tobias Risthaus        : pre 6.0 range-separated hybrid DFT and stability analysis
  Lukas Wittmann         : regularized MP2, r2SCAN double-hybrids, wr2SCAN        
                                                                         
We gratefully acknowledge several colleagues who have allowed us to      
interface, adapt or use parts of their codes:                            
  Ed Valeev, F. Pavosevic, A. Kumar             : LibInt (2-el integral package), F12 methods 
  Garnet Chan, S. Sharma, J. Yang, R. Olivares  : DMRG                   
  Ulf Ekstrom                                   : XCFun DFT Library      
  Mihaly Kallay                                 : mrcc  (arbitrary order and MRCC methods)
  Frank Weinhold                                : gennbo (NPA and NBO analysis)           
  Simon Mueller                                 : openCOSMO-RS                            
  Christopher J. Cramer and Donald G. Truhlar   : smd solvation model                     
  S Lehtola, MJT Oliveira, MAL Marques          : LibXC Library                           
  Liviu Ungur et al                             : ANISO software                          


 Your calculation uses the libint2 library for the computation of 2-el integrals
 For citations please refer to: http://libint.valeyev.net

 Your ORCA version has been built with support for libXC version: 7.0.0
 For citations please refer to: https://libxc.gitlab.io

 This ORCA versions uses:
   CBLAS   interface :  Fast vector & matrix operations
   LAPACKE interface :  Fast linear algebra routines
   SCALAPACK package :  Parallel linear algebra routines
   Shared memory     :  Shared parallel matrices
   BLAS/LAPACK       :  OpenBLAS 0.3.29  USE64BITINT DYNAMIC_ARCH NO_AFFINITY Zen SINGLE_THREADED
        Core in use  :  Zen
   Copyright (c) 2011-2014, The OpenBLAS Project


  ***********************************
  * Starting time: Thu Nov 27 22:52:03 2025
  * Host name:     vbox
  * Process ID:    4948
  * Working dir.:  /media/sf___/Formaldehyde_Project/tests
  ***********************************

NOTE: MaxCore=1000 MB was set to SCF,MP2,MDCI,CIPSI,MRCI,RASCI and CIS
      => If you want to overwrite this, your respective input block should be placed after the MaxCore statement
Your calculation utilizes the geometrical counterpoise correction gCP
Please cite in your paper:
H.Kruse, S. Grimme J.Chem.Phys., 136, (2012), 154101 
   

Your calculation utilizes the atom-pairwise dispersion correction
with the Becke-Johnson damping scheme (D3BJ)


================================================================================

----- Orbital basis set information -----
Your calculation utilizes the basis: MINIX,
   a combination of small basis sets by S. Grimme (see manual for definitions).

================================================================================
                                        WARNINGS
                       Please study these warnings very carefully!
================================================================================


WARNING: Geometry Optimization
  ===> : Switching off AutoStart
         For restart on a previous wavefunction, please use MOREAD

================================================================================
                                       INPUT FILE
================================================================================
NAME = CH₂OH2.inp
|  1> ! HF-3c OPT FREQ
|  2> %freq
|  3> Temp 300,400,500,600
|  4> end
|  5> %pal nprocs 2 end
|  6> %maxcore 1000
|  7> 
|  8> * xyz 0 1
|  9> C    0.00000000  0.00000000  0.00000000
| 10> O    1.40000000  0.00000000  0.00000000
| 11> H    1.90000000  0.00000000  0.90000000
| 12> O   -1.40000000  0.00000000  0.00000000
| 13> H   -1.90000000  0.00000000  0.90000000
| 14> H    0.00000000  0.90000000 -0.50000000
| 15> H    0.00000000 -0.90000000 -0.50000000
| 16> *
| 17> 
| 18>                          ****END OF INPUT****
================================================================================

                       *****************************
                       * Geometry Optimization Run *
                       *****************************

Geometry optimization settings:
Update method            Update   .... BFGS
Choice of coordinates    CoordSys .... (2022) Redundant Internals
Initial Hessian          InHess   .... Almloef's Model
Max. no of cycles        MaxIter  .... 50

Convergence Tolerances:
Energy Change            TolE     ....  5.0000e-06 Eh
Max. Gradient            TolMAXG  ....  3.0000e-04 Eh/bohr
RMS Gradient             TolRMSG  ....  1.0000e-04 Eh/bohr
Max. Displacement        TolMAXD  ....  4.0000e-03 bohr
RMS Displacement         TolRMSD  ....  2.0000e-03 bohr
Strict Convergence                .... False

------------------------------------------------------------------------------
                        ORCA OPTIMIZATION COORDINATE SETUP
------------------------------------------------------------------------------

The optimization will be done in redundant internal coordinates (2022)
Making redundant internal coordinates   ...  (2022 redundants) done
Evaluating the initial hessian          ...  (Almloef) done
Evaluating the coordinates              ...  done
Calculating the B-matrix                .... done
Calculating the G-matrix                .... done
The number of degrees of freedom        ....   18

    -----------------------------------------------------------------
                    Redundant Internal Coordinates


    -----------------------------------------------------------------
         Definition                    Initial Value    Approx d2E/dq
    -----------------------------------------------------------------
      1. B(O   1,C   0)                  1.4000         0.539413   
      2. B(H   2,O   1)                  1.0296         0.402702   
      3. B(O   3,C   0)                  1.4000         0.539413   
      4. B(H   4,O   3)                  1.0296         0.402702   
      5. B(H   5,C   0)                  1.0296         0.449621   
      6. B(H   6,C   0)                  1.0296         0.449621   
      7. A(H   5,C   0,H   6)          121.8908         0.312180   
      8. A(O   1,C   0,H   5)           90.0000         0.355688   
      9. A(O   3,C   0,H   5)           90.0000         0.355688   
     10. A(O   1,C   0,H   6)           90.0000         0.355688   
     11. A(O   3,C   0,H   6)           90.0000         0.355688   
     12. A(C   0,O   1,H   2)          119.0546         0.346087   
     13. A(C   0,O   3,H   4)          119.0546         0.346087   
     14. D(H   2,O   1,C   0,H   5)    119.0546         0.023145   
     15. D(H   2,O   1,C   0,H   6)   -119.0546         0.023145   
     16. D(H   4,O   3,C   0,H   5)   -119.0546         0.023145   
     17. D(H   4,O   3,O   1,H   2)      0.0000         0.010000   
     18. D(H   4,O   3,C   0,H   6)    119.0546         0.023145   
    -----------------------------------------------------------------

Number of atoms                         .... 7
Number of degrees of freedom            .... 18


         *************************************************************
         *                GEOMETRY OPTIMIZATION CYCLE   1            *
         *************************************************************
---------------------------------
CARTESIAN COORDINATES (ANGSTROEM)
---------------------------------
  C      0.000000    0.000000    0.000000
  O      1.400000    0.000000    0.000000
  H      1.900000    0.000000    0.900000
  O     -1.400000    0.000000    0.000000
  H     -1.900000    0.000000    0.900000
  H      0.000000    0.900000   -0.500000
  H      0.000000   -0.900000   -0.500000

----------------------------
CARTESIAN COORDINATES (A.U.)
----------------------------
  NO LB      ZA    FRAG     MASS         X           Y           Z
   0 C     6.0000    0    12.011    0.000000    0.000000    0.000000
   1 O     8.0000    0    15.999    2.645617    0.000000    0.000000
   2 H     1.0000    0     1.008    3.590480    0.000000    1.700754
   3 O     8.0000    0    15.999   -2.645617    0.000000    0.000000
   4 H     1.0000    0     1.008   -3.590480    0.000000    1.700754
   5 H     1.0000    0     1.008    0.000000    1.700754   -0.944863
   6 H     1.0000    0     1.008    0.000000   -1.700754   -0.944863

--------------------------------
INTERNAL COORDINATES (ANGSTROEM)
--------------------------------
 C      0   0   0     0.000000000000     0.00000000     0.00000000
 O      1   0   0     1.400000000000     0.00000000     0.00000000
 H      2   1   0     1.029563014099   119.05460410     0.00000000
 O      1   2   3     1.400000000000   180.00000000     0.00000000
 H      4   1   2     1.029563014099   119.05460410     0.00000000
 H      1   2   3     1.029563014099    90.00000000   119.05460410
 H      1   2   3     1.029563014099    90.00000000   240.94539590

---------------------------
INTERNAL COORDINATES (A.U.)
---------------------------
 C      0   0   0     0.000000000000     0.00000000     0.00000000
 O      1   0   0     2.645616587490     0.00000000     0.00000000
 H      2   1   0     1.945592134261   119.05460410     0.00000000
 O      1   2   3     2.645616587490   180.00000000     0.00000000
 H      4   1   2     1.945592134261   119.05460410     0.00000000
 H      1   2   3     1.945592134261    90.00000000   119.05460410
 H      1   2   3     1.945592134261    90.00000000   240.94539590

---------------------
BASIS SET INFORMATION
---------------------
There are 3 groups of distinct atoms

 Group   1 Type C   : 6s3p contracted to 2s1p pattern {33/3}
 Group   2 Type O   : 6s3p contracted to 2s1p pattern {33/3}
 Group   3 Type H   : 3s contracted to 1s pattern {3}

Atom   0C    basis set group =>   1
Atom   1O    basis set group =>   2
Atom   2H    basis set group =>   3
Atom   3O    basis set group =>   2
Atom   4H    basis set group =>   3
Atom   5H    basis set group =>   3
Atom   6H    basis set group =>   3


           ************************************************************
           *        Program running with 2 parallel MPI-processes     *
           *              working on a common directory               *
           ************************************************************
------------------------------------------------------------------------------
                             ORCA STARTUP CALCULATIONS
------------------------------------------------------------------------------
------------------------------------------------------------------------------
                   ___                                                        
                  /   \      - P O W E R E D   B Y -                         
                 /     \                                                     
                 |  |  |   _    _      __       _____    __    __             
                 |  |  |  | |  | |    /  \     |  _  \  |  |  /  |          
                  \  \/   | |  | |   /    \    | | | |  |  | /  /          
                 / \  \   | |__| |  /  /\  \   | |_| |  |  |/  /          
                |  |  |   |  __  | /  /__\  \  |    /   |      \           
                |  |  |   | |  | | |   __   |  |    \   |  |\   \          
                \     /   | |  | | |  |  |  |  | |\  \  |  | \   \       
                 \___/    |_|  |_| |__|  |__|  |_| \__\ |__|  \__/        
                                                                              
                      - O R C A' S   B I G   F R I E N D -                    
                                      &                                       
                       - I N T E G R A L  F E E D E R -                       
                                                                              
 v1 FN, 2020, v2 2021, v3 2022-2024                                           
------------------------------------------------------------------------------


----------------------
SHARK INTEGRAL PACKAGE
----------------------

Number of atoms                             ...      7
Number of basis functions                   ...     19
Number of shells                            ...     13
Maximum angular momentum                    ...      1
Integral batch strategy                     ... SHARK/LIBINT Hybrid
RI-J (if used) integral strategy            ... SPLIT-RIJ (Revised 2003 algorithm where possible)
Printlevel                                  ...      1
Contraction scheme used                     ... SEGMENTED contraction
Prescreening option                         ... SCHWARTZ
   Thresh                                   ... 2.500e-11
   Tcut                                     ... 2.500e-12
   Tpresel                                  ... 2.500e-12 
Coulomb Range Separation                    ... NOT USED
Exchange Range Separation                   ... NOT USED
Multipole approximations                    ... NOT USED
Finite Nucleus Model                        ... NOT USED
CABS basis                                  ... NOT available
Auxiliary Coulomb fitting basis             ... NOT available
Auxiliary J/K fitting basis                 ... NOT available
Auxiliary Correlation fitting basis         ... NOT available
Auxiliary 'external' fitting basis          ... NOT available

Checking pre-screening integrals            ... done (  0.0 sec) Dimension = 13
   => SHARK Basis and OBASIS are compatible. Storing Pre-screening
Shell pair information
Shell pair cut-off parameter TPreSel        ...   2.5e-12
Total number of shell pairs                 ...        91
Shell pairs after pre-screening             ...        90
Total number of primitive shell pairs       ...       819
Primitive shell pairs kept                  ...       691
          la=0 lb=0:     54 shell pairs
          la=1 lb=0:     30 shell pairs
          la=1 lb=1:      6 shell pairs

Checking whether 4 symmetric matrices of dimension 19 fit in memory
:Max Core in MB      =   1000.00
 MB in use           =      0.93
 MB left             =    999.07
 MB needed           =      0.01
 Data fit in memory  = YES
Calculating Nuclear repulsion               ... done (  0.0 sec) ENN=     79.284660885302 Eh
Entering conventional section               ... 
Calculating 4-index integrals               ...     -> SHARK/Ints2Disk: Thresh =     2.500000e-11 TCut=    2.500000e-12 
    -> calling libint FockFlag=2 Lmax_loc=1
    ->Total LIBINT loop time =    0.000 sec
    -> L=0 0 0 0:     0.002 sec done=      1454 (=100.0%) skipped=         0 
    -> L=1 0 0 0:     0.002 sec done=      1608 (=100.0%) skipped=         0 
    -> L=1 0 1 0:     0.002 sec done=       465 (=100.0%) skipped=         0 
    -> L=1 1 0 0:     0.001 sec done=       322 (=100.0%) skipped=         0 
    -> L=1 1 1 0:     0.001 sec done=       180 (=100.0%) skipped=         0 
    -> L=1 1 1 1:     0.000 sec done=        21 (=100.0%) skipped=         0 
    ->Total SHARK integral loop time =    0.010 sec
    -> Total Integral generation matrix time =    0.139 sec
    -> Number of small integrals   =       263
    -> Number of medium integrals  =       454
    -> Number of large integrals   =     10532
    -> Number of MB stored         =         0 MB

done (  0.1 sec)
Leaving conventional section

Diagonalization of the overlap matrix:
Smallest eigenvalue                        ... 2.048e-01
Time for diagonalization                   ...    0.000 sec
Threshold for overlap eigenvalues          ... 1.000e-07
Number of eigenvalues below threshold      ... 0
Time for construction of square roots      ...    0.024 sec
Total time needed                          ...    0.154 sec

-------------------
DFT GRID GENERATION
-------------------

General Integration Accuracy     IntAcc      ... 4.388
Radial Grid Type                 RadialGrid  ... OptM3 with GC (2021)
Angular Grid (max. ang.)         AngularGrid ... 4 (Lebedev-302)
Angular grid pruning method      GridPruning ... 4 (adaptive)
Weight generation scheme         WeightScheme... mBecke (2022)
Basis function cutoff            BFCut       ... 1.0000e-11
Integration weight cutoff        WCut        ... 1.0000e-14
Partially contracted basis set               ... off
Rotationally invariant grid construction     ... off
Angular grids for H and He will be reduced by one unit

Total number of grid points                  ...    31380
Total number of batches                      ...      494
Average number of points per batch           ...       63
Average number of grid points per atom       ...     4483
Grids setup in   1.1 sec
Initializing property integral containers    ... done (  0.3 sec)

SHARK setup successfully completed in   2.2 seconds

Maximum memory used throughout the entire STARTUP-calculation: 29.6 MB


           ************************************************************
           *        Program running with 2 parallel MPI-processes     *
           *              working on a common directory               *
           ************************************************************
-------------------------------------------------------------------------------
                                 ORCA GUESS
                   Start orbitals & Density for SCF / CASSCF
-------------------------------------------------------------------------------

------------
SCF SETTINGS
------------
Hamiltonian:
 Ab initio Hamiltonian  Method          .... Hartree-Fock(GTOs)


General Settings:
 Integral files         IntName         .... CH₂OH2
 Hartree-Fock type      HFTyp           .... RHF
 Total Charge           Charge          ....    0
 Multiplicity           Mult            ....    1
 Number of Electrons    NEL             ....   26
 Basis Dimension        Dim             ....   19
 Nuclear Repulsion      ENuc            ....     79.2846608853 Eh

Convergence Acceleration:
 AO-DIIS                CNVDIIS         .... on
   Start iteration      DIISMaxIt       ....    12
   Startup error        DIISStart       ....  0.200000
   # of expansion vecs  DIISMaxEq       ....     5
   Bias factor          DIISBfac        ....   1.050
   Max. coefficient     DIISMaxC        ....  10.000
 MO-DIIS                CNVKDIIS        .... off
 Trust-Rad. Augm. Hess. CNVTRAH         .... auto
   Auto Start mean grad. ratio tolernc. ....  1.125000
   Auto Start start iteration           ....    50
   Auto Start num. interpolation iter.  ....    10
   Max. Number of Micro iterations      ....    24
   Max. Number of Macro iterations      .... Maxiter - #DIIS iter
   Number of Davidson start vectors     ....     2
   Converg. threshold    (grad. norm)   ....   1.000e-05
   Grad. Scal. Fac. for Micro threshold ....   0.100
   Minimum threshold for Micro iter.    ....   1.000e-02
   NR start threshold (gradient norm)   ....   1.000e-04
   Initial trust radius                 ....   0.400
   Minimum AH scaling param. (alpha)    ....   1.000
   Maximum AH scaling param. (alpha)    .... 1000.000
   Quad. conv. algorithm                .... NR
   White noise on init. David. guess    .... on
   Maximum white noise                  ....   0.010
   Pseudo random numbers                .... off
   Inactive MOs                         .... canonical
   Orbital update algorithm             .... Taylor
   Preconditioner                       .... Diag
   Full preconditioner red. dimension   ....   250
 SOSCF                 CNVSOSCF           .... on
   Start iteration     SOSCFMaxIt         ....   150
   Startup grad/error  SOSCFStart         ....  0.003300
   Hessian update      SOSCFHessUp        .... L-BFGS
   Autom. constraints  SOSCFAutoConstrain .... off
 Level Shifting         CNVShift        .... on
   Level shift para.    LevelShift      ....    0.2500
   Turn off err/grad.   ShiftErr        ....    0.0010
 Zerner damping         CNVZerner       .... off
 Static damping         CNVDamp         .... on
   Fraction old density DampFac         ....    0.7000
   Max. Damping (<1)    DampMax         ....    0.9800
   Min. Damping (>=0)   DampMin         ....    0.0000
   Turn off err/grad.   DampErr         ....    0.1000

SCF Procedure:
 Maximum # iterations   MaxIter         ....   125
 SCF integral mode      SCFMode         .... Conventional
 Integral Threshold     Thresh          ....  2.500e-11 Eh
 Primitive CutOff       TCut            ....  2.500e-12 Eh
 Integral Buffer length BufferLength    .... 1048576
 Integral index format  IndFormat       ....     0
 Integral value format  ValFormat       ....     0
 Integral Storage       Thresh          ....  2.500e-11 Eh

Convergence Tolerance:
 Convergence Check Mode ConvCheckMode   .... Total+1el-Energy
 Convergence forced     ConvForced      .... 0
 Energy Change          TolE            ....  1.000e-08 Eh
 1-El. energy change                    ....  1.000e-05 Eh
 Orbital Gradient       TolG            ....  1.000e-05
 Orbital Rotation angle TolX            ....  1.000e-05
 DIIS Error             TolErr          ....  5.000e-07

--------------------------------
INITIAL GUESS: MINIMAL BASIS EHT
--------------------------------
The minimal basis has 19 functions
EHT matrix was diagonalized
Basis set overlap was calculated now projecting the orbitals
Using GuessMode=FMatrix for the initial guess
C*T matrix was formed
Effective Fockian was calculated
Effective Fockian was diagonalized
Initial density was built
                      ------------------
                      INITIAL GUESS DONE
                      ------------------
             **** ENERGY FILE WAS UPDATED (CH₂OH2.en.tmp) ****
Finished Guess after   0.7 sec
Maximum memory used throughout the entire GUESS-calculation: 2.2 MB


           ************************************************************
           *        Program running with 2 parallel MPI-processes     *
           *              working on a common directory               *
           ************************************************************

-------------------------------------------------------------------------------------------
                                      ORCA LEAN-SCF
                              memory conserving SCF solver
-------------------------------------------------------------------------------------------


 InCore treatment chosen for four center integrals:
   Memory dedicated               ...    1000 MB
   Memory needed                  ...      0 MB
   Number of tiny    integrals    ...     263
   Number of small   integrals    ...     454
   Number of regular integrals    ...   10532

----------------------------------------D-I-I-S--------------------------------------------
Iteration    Energy (Eh)           Delta-E    RMSDP     MaxDP     DIISErr   Damp  Time(sec)
-------------------------------------------------------------------------------------------
    1    -188.1051160399148614     0.00e+00  2.89e-02  8.54e-02  2.48e-01  0.700   0.6
    2    -188.1794815401861172    -7.44e-02  2.60e-02  7.16e-02  1.80e-01  0.700   0.7
                               ***Turning on AO-DIIS***
    3    -188.2351492814165965    -5.57e-02  2.12e-02  6.03e-02  1.29e-01  0.700   0.5
    4    -188.2760447123725669    -4.09e-02  1.70e-02  4.86e-02  9.08e-02  0.700   0.6
    5    -188.3062715088320545    -3.02e-02  4.44e-02  1.28e-01  6.34e-02  0.000   0.6
    6    -188.3859642865469652    -7.97e-02  6.13e-03  1.94e-02  6.24e-03  0.000   0.7
    7    -188.3868017801790700    -8.37e-04  4.63e-03  1.24e-02  3.65e-03  0.000   0.6
                              *** Initializing SOSCF ***
---------------------------------------S-O-S-C-F--------------------------------------
Iteration    Energy (Eh)           Delta-E    RMSDP     MaxDP     MaxGrad    Time(sec)
--------------------------------------------------------------------------------------
    8    -188.3871351328200205    -3.33e-04  2.24e-03  5.60e-03  1.51e-03     0.8
    9    -188.3872070228457858    -7.19e-05  7.27e-04  2.66e-03  1.43e-03     0.6
   10    -188.3872183950195733    -1.14e-05  8.42e-04  2.86e-03  7.36e-04     0.7
   11    -188.3872229955952378    -4.60e-06  3.42e-05  1.18e-04  7.15e-05     0.6
   12    -188.3872230170142359    -2.14e-08  1.44e-05  4.63e-05  1.73e-05     0.7
   13    -188.3872230194065480    -2.39e-09  2.01e-06  6.99e-06  2.57e-06     0.6
                 **** Energy Check signals convergence ****

               *****************************************************
               *                     SUCCESS                       *
               *           SCF CONVERGED AFTER  13 CYCLES          *
               *****************************************************

             **** ENERGY FILE WAS UPDATED (CH₂OH2.en.tmp) ****

----------------
TOTAL SCF ENERGY
----------------

Total Energy       :       -188.38722301948511 Eh           -5126.27695 eV

Components:
Nuclear Repulsion  :         79.28466088530158 Eh            2157.44531 eV
Electronic Energy  :       -267.67188390478668 Eh           -7283.72226 eV
One Electron Energy:       -416.85568110513731 Eh          -11343.21976 eV
Two Electron Energy:        149.18379720035063 Eh            4059.49750 eV

Virial components:
Potential Energy   :       -378.05512828626513 Eh          -10287.40304 eV
Kinetic Energy     :        189.66790526678002 Eh            5161.12609 eV
Virial Ratio       :          1.99324776511085

---------------
SCF CONVERGENCE
---------------

  Last Energy change         ...    2.3923e-09  Tolerance :   1.0000e-08
  Last MAX-Density change    ...    6.9924e-06  Tolerance :   1.0000e-07
  Last RMS-Density change    ...    2.0071e-06  Tolerance :   5.0000e-09
  Last DIIS Error            ...    1.5093e-03  Tolerance :   5.0000e-07
  Last Orbital Gradient      ...    2.5744e-06  Tolerance :   1.0000e-05
  Last Orbital Rotation      ...    3.5006e-06  Tolerance :   1.0000e-05


----------------
ORBITAL ENERGIES
----------------

  NO   OCC          E(Eh)            E(eV) 
   0   2.0000     -20.333117      -553.2922 
   1   2.0000     -20.332096      -553.2645 
   2   2.0000     -11.235026      -305.7206 
   3   2.0000      -1.367498       -37.2115 
   4   2.0000      -1.324268       -36.0352 
   5   2.0000      -0.895696       -24.3731 
   6   2.0000      -0.699183       -19.0257 
   7   2.0000      -0.691225       -18.8092 
   8   2.0000      -0.589790       -16.0490 
   9   2.0000      -0.507475       -13.8091 
  10   2.0000      -0.488067       -13.2810 
  11   2.0000      -0.403011       -10.9665 
  12   2.0000      -0.377591       -10.2748 
  13   0.0000       0.215592         5.8666 
  14   0.0000       0.510783        13.8991 
  15   0.0000       0.552053        15.0221 
  16   0.0000       0.816133        22.2081 
  17   0.0000       0.850803        23.1515 
  18   0.0000       0.855821        23.2881 
*Only the first 10 virtual orbitals were printed.

                    ********************************
                    * MULLIKEN POPULATION ANALYSIS *
                    ********************************

-----------------------
MULLIKEN ATOMIC CHARGES
-----------------------
   0 C :   -0.003656
   1 O :   -0.420757
   2 H :    0.280837
   3 O :   -0.420757
   4 H :    0.280837
   5 H :    0.141747
   6 H :    0.141747
Sum of atomic charges:   -0.0000000

--------------------------------
MULLIKEN REDUCED ORBITAL CHARGES
--------------------------------
  0 C s       :     3.066460  s :     3.066460
      pz      :     1.055878  p :     2.937195
      px      :     0.711408
      py      :     1.169909

  1 O s       :     3.817029  s :     3.817029
      pz      :     1.454748  p :     4.603728
      px      :     1.153254
      py      :     1.995726

  2 H s       :     0.719163  s :     0.719163

  3 O s       :     3.817029  s :     3.817029
      pz      :     1.454748  p :     4.603728
      px      :     1.153254
      py      :     1.995726

  4 H s       :     0.719163  s :     0.719163

  5 H s       :     0.858253  s :     0.858253

  6 H s       :     0.858253  s :     0.858253



                     *******************************
                     * LOEWDIN POPULATION ANALYSIS *
                     *******************************

----------------------
LOEWDIN ATOMIC CHARGES
----------------------
   0 C :    0.041173
   1 O :   -0.311825
   2 H :    0.213434
   3 O :   -0.311825
   4 H :    0.213434
   5 H :    0.077804
   6 H :    0.077804

-------------------------------
LOEWDIN REDUCED ORBITAL CHARGES
-------------------------------
  0 C s       :     2.939518  s :     2.939518
      pz      :     1.063709  p :     3.019309
      px      :     0.809651
      py      :     1.145949

  1 O s       :     3.691886  s :     3.691886
      pz      :     1.446114  p :     4.619939
      px      :     1.177848
      py      :     1.995976

  2 H s       :     0.786566  s :     0.786566

  3 O s       :     3.691886  s :     3.691886
      pz      :     1.446114  p :     4.619939
      px      :     1.177848
      py      :     1.995976

  4 H s       :     0.786566  s :     0.786566

  5 H s       :     0.922196  s :     0.922196

  6 H s       :     0.922196  s :     0.922196



                      *****************************
                      * MAYER POPULATION ANALYSIS *
                      *****************************

  NA   - Mulliken gross atomic population
  ZA   - Total nuclear charge
  QA   - Mulliken gross atomic charge
  VA   - Mayer's total valence
  BVA  - Mayer's bonded valence
  FA   - Mayer's free valence

  ATOM       NA         ZA         QA         VA         BVA        FA
  0 C      6.0037     6.0000    -0.0037     3.8759     3.8759     0.0000
  1 O      8.4208     8.0000    -0.4208     1.9578     1.9578    -0.0000
  2 H      0.7192     1.0000     0.2808     0.9211     0.9211    -0.0000
  3 O      8.4208     8.0000    -0.4208     1.9578     1.9578    -0.0000
  4 H      0.7192     1.0000     0.2808     0.9211     0.9211    -0.0000
  5 H      0.8583     1.0000     0.1417     0.9799     0.9799    -0.0000
  6 H      0.8583     1.0000     0.1417     0.9799     0.9799    -0.0000

  Mayer bond orders larger than 0.100000
B(  0-C ,  1-O ) :   0.9732 B(  0-C ,  3-O ) :   0.9732 B(  0-C ,  5-H ) :   0.9532 
B(  0-C ,  6-H ) :   0.9532 B(  1-O ,  2-H ) :   0.8936 B(  3-O ,  4-H ) :   0.8936 


-------
TIMINGS
-------

Total SCF time: 0 days 0 hours 0 min 9 sec 

Total time                  ....       9.651 sec
Sum of individual times     ....       7.926 sec  ( 82.1%)

SCF preparation             ....       0.510 sec  (  5.3%)
Fock matrix formation       ....       1.914 sec  ( 19.8%)
  Startup                   ....       0.571 sec  ( 29.8% of F)
  Coulomb+Exchange Fock     ....       0.620 sec  ( 32.4% of F)
Diagonalization             ....       0.000 sec  (  0.0%)
Density matrix formation    ....       1.696 sec  ( 17.6%)
Total Energy calculation    ....       0.519 sec  (  5.4%)
Population analysis         ....       0.179 sec  (  1.9%)
Orbital Transformation      ....       0.243 sec  (  2.5%)
Orbital Orthonormalization  ....       0.000 sec  (  0.0%)
DIIS solution               ....       1.603 sec  ( 16.6%)
SOSCF solution              ....       1.261 sec  ( 13.1%)
Finished LeanSCF after   9.9 sec

Maximum memory used throughout the entire LEANSCF-calculation: 51.3 MB


           ************************************************************
           *        Program running with 2 parallel MPI-processes     *
           *              working on a common directory               *
           ************************************************************

------------------------------------------------------------------------------
                         ORCA PROPERTY INTEGRAL CALCULATIONS
------------------------------------------------------------------------------

GBWName                                   ... CH₂OH2.gbw
Number of atoms                           ...      7
Number of basis functions                 ...     19
Max core memory                           ...   1000 MB

Dipole integrals                          ... YES
Quadrupole integrals                      ...  NO
Linear momentum integrals                 ...  NO
Angular momentum integrals                ...  NO
Higher moments length integrals           ...  NO
Higher moments velocity integrals         ...  NO
Kinetic energy integrals                  ...  NO
GIAO right hand sides                     ...  NO
GIAO dipole derivative integrals          ...  NO
SOC integrals                             ...  NO
EPR diamagnetic integrals (GIAO)          ...  NO
EPR gauge integrals                       ...  NO
Field gradient integrals                  ...  NO (   0 nuclei)
Spin-dipole/Fermi contact integrals       ...  NO (   0 nuclei)
Contact density integrals                 ...  NO (   0 nuclei)
Nucleus-orbit integrals                   ...  NO (   0 nuclei)
Geometric perturbations                   ...  NO (   7 nuclei)

Choice of electric origin   ... Center of mass
Position of electric origin ... ( -0.0000,  0.0000,  0.0317) 
Choice of magnetic origin   ... GIAO
Position of magnetic origin ... (  0.0000,  0.0000,  0.0000) 

Calculating integrals                     ... Electric Dipole (Length)     done (  0.1 sec)

Property integrals calculated in   0.1 sec

Maximum memory used throughout the entire PROPINT-calculation: 2.4 MB


-------------------------------------------------------------------------------
                          DFT DISPERSION CORRECTION                            
                                                                               
                              DFTD3 V3.1  Rev 1                                
                          USING Becke-Johnson damping                          
-------------------------------------------------------------------------------
Hartree-Fock is recognized
Active option DFTDOPT                   ...         4   

molecular C6(AA) [au] = 310.575168 


            DFT-D V3
 parameters
 using HF/MINIX parameters
 s6 scaling factor         :     1.0000 
 a1 scaling factor         :     0.4171 
 s8 scaling factor         :     0.8777 
 a2 scaling factor         :     2.9149 
 ad hoc parameters k1-k3   :    16.0000     1.3333    -4.0000 

 Edisp/kcal,au: -9.621001080701  -0.015332039518 
 E6   /kcal   :  -5.593479127 
 E8   /kcal   :  -4.027521953 
 % E8         :  41.861776334 

-------------------------   ----------------
Dispersion correction           -0.015332040
-------------------------   ----------------

------------------   -----------------
gCP+bas correction        -0.028307056
------------------   -----------------
----------------------------   ----------------
Total correction to HF/MINIX       -0.043639095
----------------------------   ----------------


-------------------------   --------------------
FINAL SINGLE POINT ENERGY      -188.430862114603
-------------------------   --------------------



           ************************************************************
           *        Program running with 2 parallel MPI-processes     *
           *              working on a common directory               *
           ************************************************************
------------------------------------------------------------------------------
                         ORCA SCF GRADIENT CALCULATION
------------------------------------------------------------------------------

Nuc. rep. gradient        (SHARK) ... done (  0.0 sec)
HCore & Overlap gradient  (SHARK) ... done (  0.0 sec)
Two-electron gradient     (SHARK) ... done (  0.0 sec)
Dispersion correction             ... done (  0.1 sec)

-------------------
DISPERSION GRADIENT
-------------------

   1   C   :   -0.000000000    0.000000000   -0.000301496
   2   O   :    0.000854101    0.000000000    0.000121115
   3   H   :    0.000728736    0.000000000    0.000371196
   4   O   :   -0.000854101    0.000000000    0.000121115
   5   H   :   -0.000728736    0.000000000    0.000371196
   6   H   :   -0.000000000    0.000507780   -0.000341563
   7   H   :   -0.000000000   -0.000507780   -0.000341563

Difference to translation invariance:
           :    0.0000000000    0.0000000000    0.0000000000

Difference to rotation invariance:
           :    0.0000000000    0.0000000000    0.0000000000

Norm of the Dispersion gradient    ...    0.0019146569
RMS gradient                       ...    0.0004178124
MAX gradient                       ...    0.0008541008
gCP correction                   ... done

------------------
CARTESIAN GRADIENT
------------------

   1   C   :   -0.000000000    0.000000000    0.112230194
   2   O   :   -0.135180376   -0.000000000   -0.167287204
   3   H   :    0.017052744    0.000000000    0.040700336
   4   O   :    0.135180376   -0.000000000   -0.167287204
   5   H   :   -0.017052744    0.000000000    0.040700336
   6   H   :    0.000000000   -0.050297013    0.070471771
   7   H   :    0.000000000    0.050297013    0.070471771

Difference to translation invariance:
           :    0.0000000000   -0.0000000000   -0.0000000000

Difference to rotation invariance:
           :   -0.0000000000    0.0000000000    0.0000000000

Norm of the Cartesian gradient     ...    0.3521361227
RMS gradient                       ...    0.0768424018
MAX gradient                       ...    0.1672872039

-------
TIMINGS
-------

Total SCF gradient time     ....        0.241 sec

Densities                   ....       0.000 sec  (  0.0%)
One electron gradient       ....       0.010 sec  (  4.1%)
Two electron gradient       ....       0.042 sec  ( 17.3%)

Maximum memory used throughout the entire SCFGRAD-calculation: 23.0 MB
------------------------------------------------------------------------------
                         ORCA GEOMETRY RELAXATION STEP
------------------------------------------------------------------------------

Reading the OPT-File                    .... done
Getting information on internals        .... done
Copying old internal coords+grads       .... done
Making the new internal coordinates     .... (2022 redundants) done
Validating the new internal coordinates .... (2022 redundants) done
Calculating the B-matrix                .... done
Calculating the G,G- and P matrices     .... done
Transforming gradient to internals      .... done
Projecting the internal gradient        .... done
Number of atoms                         ....   7
Number of internal coordinates          ....  18
Current Energy                          ....  -188.430862115 Eh
Current gradient norm                   ....     0.352136123 Eh/bohr
Maximum allowed component of the step   ....  0.300
Current trust radius                    ....  0.300
Evaluating the initial hessian          ....  (Almloef) done
Projecting the Hessian                  .... done
Forming the augmented Hessian           .... done
Diagonalizing the augmented Hessian     .... done
Last element of RFO vector              ....  0.790645489
Lowest eigenvalues of augmented Hessian:
 -0.544724491  0.016572362  0.023144725  0.168628992  0.346086510
Length of the computed step             ....  0.774397907
Warning: the length of the step is outside the trust region - taking restricted step instead
The input lambda is                     ....     0.015572
   iter:   5  x=   -1.591518  g=    0.284985 f(x)=     0.125759
   iter:  10  x=   -1.980837  g=    0.076726 f(x)=     0.000000
The output lambda is                    ....    -1.980837 (11 iterations)
The final length of the internal step   ....  0.300000000
Converting the step to Cartesian space:
 Initial RMS(Int)=    0.0707106781
Transforming coordinates:
 Iter   0:  RMS(Cart)=    0.3067705645 RMS(Int)=    0.0870741314
 Iter   5:  RMS(Cart)=    0.0007952127 RMS(Int)=    0.0002823135
 Iter  10:  RMS(Cart)=    0.0000034647 RMS(Int)=    0.0000023913
done
Storing new coordinates                 .... done

                                .--------------------.
          ----------------------|Geometry convergence|-------------------------
          Item                value                   Tolerance       Converged
          ---------------------------------------------------------------------
          RMS gradient        0.1659752047            0.0001000000      NO
          MAX gradient        0.3350677689            0.0003000000      NO
          RMS step            0.0707106781            0.0020000000      NO
          MAX step            0.1434043267            0.0040000000      NO
          -------------------------------------------------------------------------
          ........................................................
          Max(Bonds)      0.0248      Max(Angles)    8.22
          Max(Dihed)        0.48      Max(Improp)    0.00
          ---------------------------------------------------------------------

The optimization has not yet converged - more geometry cycles are needed


    ---------------------------------------------------------------------------
                         Redundant Internal Coordinates
                            (Angstroem and degrees)

        Definition                    Value    dE/dq     Step     New-Value
    ----------------------------------------------------------------------------
     1. B(O   1,C   0)                1.4000 -0.118128  0.0248    1.4248   
     2. B(H   2,O   1)                1.0296  0.043860 -0.0097    1.0198   
     3. B(O   3,C   0)                1.4000 -0.118128  0.0248    1.4248   
     4. B(H   4,O   3)                1.0296  0.043860 -0.0097    1.0198   
     5. B(H   5,C   0)                1.0296 -0.078192  0.0170    1.0466   
     6. B(H   6,C   0)                1.0296 -0.078192  0.0170    1.0466   
     7. A(H   5,C   0,H   6)          121.89  0.036166   -0.96    120.93   
     8. A(O   1,C   0,H   5)           90.00 -0.335068    8.22     98.22   
     9. A(O   3,C   0,H   5)           90.00 -0.335068    8.22     98.22   
    10. A(O   1,C   0,H   6)           90.00 -0.335068    8.22     98.22   
    11. A(O   3,C   0,H   6)           90.00 -0.335068    8.22     98.22   
    12. A(C   0,O   1,H   2)          119.05 -0.009454    0.23    119.29   
    13. A(C   0,O   3,H   4)          119.05 -0.009454    0.23    119.29   
    14. D(H   2,O   1,C   0,H   5)    119.05 -0.018083    0.48    119.54   
    15. D(H   2,O   1,C   0,H   6)   -119.05  0.018083   -0.48   -119.54   
    16. D(H   4,O   3,C   0,H   5)   -119.05  0.018083   -0.48   -119.54   
    17. D(H   4,O   3,O   1,H   2)      0.00  0.000000    0.00      0.00   
    18. D(H   4,O   3,C   0,H   6)    119.05 -0.018083    0.48    119.54   
    ----------------------------------------------------------------------------

Geometry step timings:
Preparation and reading OPT file:      0.002 s ( 2.004 %)
Internal coordinates            :      0.002 s ( 1.975 %)
B/P matrices and projection     :      0.006 s ( 4.888 %)
Hessian update/contruction      :      0.018 s (15.287 %)
Making the step                 :      0.032 s (27.180 %)
Converting the step to Cartesian:      0.010 s ( 8.365 %)
Storing new data                :      0.004 s ( 3.715 %)
Checking convergence            :      0.007 s ( 5.778 %)
Final printing                  :      0.036 s (30.796 %)
Total time                      :      0.117 s

Time for energy+gradient        :     15.904 s
Time for complete geometry iter :     16.924 s

         *************************************************************
         *                GEOMETRY OPTIMIZATION CYCLE   2            *
         *************************************************************
---------------------------------
CARTESIAN COORDINATES (ANGSTROEM)
---------------------------------
  C      0.000000   -0.000000   -0.252479
  O      1.365576    0.000000    0.154049
  H      1.589942   -0.000000    1.148888
  O     -1.365576   -0.000000    0.154049
  H     -1.589942    0.000000    1.148888
  H     -0.000000    0.905837   -0.776698
  H     -0.000000   -0.905837   -0.776698

----------------------------
CARTESIAN COORDINATES (A.U.)
----------------------------
  NO LB      ZA    FRAG     MASS         X           Y           Z
   0 C     6.0000    0    12.011    0.000000   -0.000000   -0.477116
   1 O     8.0000    0    15.999    2.580566    0.000000    0.291111
   2 H     1.0000    0     1.008    3.004555   -0.000000    2.171084
   3 O     8.0000    0    15.999   -2.580566   -0.000000    0.291111
   4 H     1.0000    0     1.008   -3.004555    0.000000    2.171084
   5 H     1.0000    0     1.008   -0.000000    1.711783   -1.467746
   6 H     1.0000    0     1.008   -0.000000   -1.711783   -1.467746

--------------------------------
INTERNAL COORDINATES (ANGSTROEM)
--------------------------------
 C      0   0   0     0.000000000000     0.00000000     0.00000000
 O      1   0   0     1.424803291202     0.00000000     0.00000000
 H      2   1   0     1.019825511063   119.28738291     0.00000000
 O      1   2   3     1.424803291202   146.84375522     0.00000000
 H      4   1   2     1.019825511063   119.28738291     0.00000000
 H      1   2   3     1.046587469477    98.21646282   119.01519191
 H      1   2   3     1.046587469477    98.21646282   240.98480809

---------------------------
INTERNAL COORDINATES (A.U.)
---------------------------
 C      0   0   0     0.000000000000     0.00000000     0.00000000
 O      1   0   0     2.692488015081     0.00000000     0.00000000
 H      2   1   0     1.927190920295   119.28738291     0.00000000
 O      1   2   3     2.692488015081   146.84375522     0.00000000
 H      4   1   2     1.927190920295   119.28738291     0.00000000
 H      1   2   3     1.977763692504    98.21646282   119.01519191
 H      1   2   3     1.977763692505    98.21646282   240.98480809



           ************************************************************
           *        Program running with 2 parallel MPI-processes     *
           *              working on a common directory               *
           ************************************************************
------------------------------------------------------------------------------
                   ___                                                        
                  /   \      - P O W E R E D   B Y -                         
                 /     \                                                     
                 |  |  |   _    _      __       _____    __    __             
                 |  |  |  | |  | |    /  \     |  _  \  |  |  /  |          
                  \  \/   | |  | |   /    \    | | | |  |  | /  /          
                 / \  \   | |__| |  /  /\  \   | |_| |  |  |/  /          
                |  |  |   |  __  | /  /__\  \  |    /   |      \           
                |  |  |   | |  | | |   __   |  |    \   |  |\   \          
                \     /   | |  | | |  |  |  |  | |\  \  |  | \   \       
                 \___/    |_|  |_| |__|  |__|  |_| \__\ |__|  \__/        
                                                                              
                      - O R C A' S   B I G   F R I E N D -                    
                                      &                                       
                       - I N T E G R A L  F E E D E R -                       
                                                                              
 v1 FN, 2020, v2 2021, v3 2022-2024                                           
------------------------------------------------------------------------------


----------------------
SHARK INTEGRAL PACKAGE
----------------------

Number of atoms                             ...      7
Number of basis functions                   ...     19
Number of shells                            ...     13
Maximum angular momentum                    ...      1
Integral batch strategy                     ... SHARK/LIBINT Hybrid
RI-J (if used) integral strategy            ... SPLIT-RIJ (Revised 2003 algorithm where possible)
Printlevel                                  ...      1
Contraction scheme used                     ... SEGMENTED contraction
Prescreening option                         ... SCHWARTZ
   Thresh                                   ... 2.500e-11
   Tcut                                     ... 2.500e-12
   Tpresel                                  ... 2.500e-12 
Coulomb Range Separation                    ... NOT USED
Exchange Range Separation                   ... NOT USED
Multipole approximations                    ... NOT USED
Finite Nucleus Model                        ... NOT USED
CABS basis                                  ... NOT available
Auxiliary Coulomb fitting basis             ... NOT available
Auxiliary J/K fitting basis                 ... NOT available
Auxiliary Correlation fitting basis         ... NOT available
Auxiliary 'external' fitting basis          ... NOT available

Checking pre-screening integrals            ... done (  0.0 sec) Dimension = 13
   => SHARK Basis and OBASIS are compatible. Storing Pre-screening
Shell pair information
Shell pair cut-off parameter TPreSel        ...   2.5e-12
Total number of shell pairs                 ...        91
Shell pairs after pre-screening             ...        90
Total number of primitive shell pairs       ...       819
Primitive shell pairs kept                  ...       688
          la=0 lb=0:     54 shell pairs
          la=1 lb=0:     30 shell pairs
          la=1 lb=1:      6 shell pairs

Checking whether 4 symmetric matrices of dimension 19 fit in memory
:Max Core in MB      =   1000.00
 MB in use           =      0.93
 MB left             =    999.07
 MB needed           =      0.01
 Data fit in memory  = YES
Calculating Nuclear repulsion               ... done (  0.0 sec) ENN=     78.376877745608 Eh
Entering conventional section               ... 
Calculating 4-index integrals               ...     -> SHARK/Ints2Disk: Thresh =     2.500000e-11 TCut=    2.500000e-12 
    -> calling libint FockFlag=2 Lmax_loc=1
    ->Total LIBINT loop time =    0.000 sec
    -> L=0 0 0 0:     0.002 sec done=      1438 (=100.0%) skipped=         0 
    -> L=1 0 0 0:     0.003 sec done=      1608 (=100.0%) skipped=         0 
    -> L=1 0 1 0:     0.002 sec done=       465 (=100.0%) skipped=         0 
    -> L=1 1 0 0:     0.002 sec done=       322 (=100.0%) skipped=         0 
    -> L=1 1 1 0:     0.001 sec done=       180 (=100.0%) skipped=         0 
    -> L=1 1 1 1:     0.001 sec done=        21 (=100.0%) skipped=         0 
    ->Total SHARK integral loop time =    0.013 sec
    -> Total Integral generation matrix time =    0.119 sec
    -> Number of small integrals   =       185
    -> Number of medium integrals  =       445
    -> Number of large integrals   =     11885
    -> Number of MB stored         =         0 MB

done (  0.1 sec)
Leaving conventional section

Diagonalization of the overlap matrix:
Smallest eigenvalue                        ... 2.180e-01
Time for diagonalization                   ...    0.001 sec
Threshold for overlap eigenvalues          ... 1.000e-07
Number of eigenvalues below threshold      ... 0
Time for construction of square roots      ...    0.024 sec
Total time needed                          ...    0.151 sec

-------------------
DFT GRID GENERATION
-------------------

General Integration Accuracy     IntAcc      ... 4.388
Radial Grid Type                 RadialGrid  ... OptM3 with GC (2021)
Angular Grid (max. ang.)         AngularGrid ... 4 (Lebedev-302)
Angular grid pruning method      GridPruning ... 4 (adaptive)
Weight generation scheme         WeightScheme... mBecke (2022)
Basis function cutoff            BFCut       ... 1.0000e-11
Integration weight cutoff        WCut        ... 1.0000e-14
Partially contracted basis set               ... off
Rotationally invariant grid construction     ... off
Angular grids for H and He will be reduced by one unit

Total number of grid points                  ...    31396
Total number of batches                      ...      495
Average number of points per batch           ...       63
Average number of grid points per atom       ...     4485
Grids setup in   1.4 sec
Initializing property integral containers    ... done (  0.3 sec)

SHARK setup successfully completed in   2.7 seconds

Maximum memory used throughout the entire STARTUP-calculation: 29.6 MB


           ************************************************************
           *        Program running with 2 parallel MPI-processes     *
           *              working on a common directory               *
           ************************************************************
Occupation numbers will be reassigned to an Aufbau configuration
             **** ENERGY FILE WAS UPDATED (CH₂OH2.en.tmp) ****
Finished Guess after   0.7 sec
Maximum memory used throughout the entire GUESS-calculation: 2.2 MB


           ************************************************************
           *        Program running with 2 parallel MPI-processes     *
           *              working on a common directory               *
           ************************************************************

 InCore treatment chosen for four center integrals:
   Memory dedicated               ...    1000 MB
   Memory needed                  ...      0 MB
   Number of tiny    integrals    ...     185
   Number of small   integrals    ...     445
   Number of regular integrals    ...   11885

----------------------------------------D-I-I-S--------------------------------------------
Iteration    Energy (Eh)           Delta-E    RMSDP     MaxDP     DIISErr   Damp  Time(sec)
-------------------------------------------------------------------------------------------
    1    -188.4748692088489292     0.00e+00  1.11e-02  3.35e-02  1.07e-01  0.700   0.7
    2    -188.4893035842503082    -1.44e-02  1.06e-02  3.15e-02  9.00e-02  0.700   0.6
                               ***Turning on AO-DIIS***
    3    -188.5018716584095273    -1.26e-02  1.13e-02  3.36e-02  7.39e-02  0.700   0.7
    4    -188.5121827187770123    -1.03e-02  3.20e-02  9.58e-02  5.62e-02  0.000   0.7
    5    -188.5457986339310423    -3.36e-02  3.32e-03  9.11e-03  6.29e-03  0.000   0.7
                              *** Initializing SOSCF ***
---------------------------------------S-O-S-C-F--------------------------------------
Iteration    Energy (Eh)           Delta-E    RMSDP     MaxDP     MaxGrad    Time(sec)
--------------------------------------------------------------------------------------
    6    -188.5460798051776123    -2.81e-04  1.29e-03  3.07e-03  1.77e-03     1.0
    7    -188.5461171271378475    -3.73e-05  3.75e-04  9.28e-04  7.55e-04     0.5
    8    -188.5461210058510346    -3.88e-06  2.89e-04  8.02e-04  3.41e-04     0.5
    9    -188.5461219101359802    -9.04e-07  1.89e-05  5.89e-05  3.18e-05     0.5
   10    -188.5461219167195850    -6.58e-09  5.89e-06  1.39e-05  8.80e-06     0.6
                 **** Energy Check signals convergence ****

               *****************************************************
               *                     SUCCESS                       *
               *           SCF CONVERGED AFTER  10 CYCLES          *
               *****************************************************

             **** ENERGY FILE WAS UPDATED (CH₂OH2.en.tmp) ****

----------------
TOTAL SCF ENERGY
----------------

Total Energy       :       -188.54612191739835 Eh           -5130.60081 eV

Components:
Nuclear Repulsion  :         78.37687774560754 Eh            2132.74327 eV
Electronic Energy  :       -266.92299966300590 Eh           -7263.34408 eV
One Electron Energy:       -415.25332713972324 Eh          -11299.61749 eV
Two Electron Energy:        148.33032747671734 Eh            4036.27341 eV

Virial components:
Potential Energy   :       -377.79241715119122 Eh          -10280.25431 eV
Kinetic Energy     :        189.24629523379289 Eh            5149.65350 eV
Virial Ratio       :          1.99630020066956

---------------
SCF CONVERGENCE
---------------

  Last Energy change         ...    6.5836e-09  Tolerance :   1.0000e-08
  Last MAX-Density change    ...    1.3877e-05  Tolerance :   1.0000e-07
  Last RMS-Density change    ...    5.8918e-06  Tolerance :   5.0000e-09
  Last DIIS Error            ...    1.7711e-03  Tolerance :   5.0000e-07
  Last Orbital Gradient      ...    8.8023e-06  Tolerance :   1.0000e-05
  Last Orbital Rotation      ...    1.2718e-05  Tolerance :   1.0000e-05


Total SCF time: 0 days 0 hours 0 min 7 sec 
Finished LeanSCF after   8.0 sec

Maximum memory used throughout the entire LEANSCF-calculation: 51.3 MB


           ************************************************************
           *        Program running with 2 parallel MPI-processes     *
           *              working on a common directory               *
           ************************************************************

------------------------------------------------------------------------------
                         ORCA PROPERTY INTEGRAL CALCULATIONS
------------------------------------------------------------------------------

GBWName                                   ... CH₂OH2.gbw
Number of atoms                           ...      7
Number of basis functions                 ...     19
Max core memory                           ...   1000 MB

Dipole integrals                          ... YES
Quadrupole integrals                      ...  NO
Linear momentum integrals                 ...  NO
Angular momentum integrals                ...  NO
Higher moments length integrals           ...  NO
Higher moments velocity integrals         ...  NO
Kinetic energy integrals                  ...  NO
GIAO right hand sides                     ...  NO
GIAO dipole derivative integrals          ...  NO
SOC integrals                             ...  NO
EPR diamagnetic integrals (GIAO)          ...  NO
EPR gauge integrals                       ...  NO
Field gradient integrals                  ...  NO (   0 nuclei)
Spin-dipole/Fermi contact integrals       ...  NO (   0 nuclei)
Contact density integrals                 ...  NO (   0 nuclei)
Nucleus-orbit integrals                   ...  NO (   0 nuclei)
Geometric perturbations                   ...  NO (   7 nuclei)

Choice of electric origin   ... Center of mass
Position of electric origin ... (  0.0000,  0.0000,  0.1041) 
Choice of magnetic origin   ... GIAO
Position of magnetic origin ... (  0.0000,  0.0000,  0.0000) 

Calculating integrals                     ... Electric Dipole (Length)     done (  0.1 sec)

Property integrals calculated in   0.1 sec

Maximum memory used throughout the entire PROPINT-calculation: 2.4 MB


-------------------------------------------------------------------------------
                          DFT DISPERSION CORRECTION                            
                                                                               
                              DFTD3 V3.1  Rev 1                                
                          USING Becke-Johnson damping                          
-------------------------------------------------------------------------------
-------------------------   ----------------
Dispersion correction           -0.015106560
-------------------------   ----------------

------------------   -----------------
gCP+bas correction        -0.025592749
------------------   -----------------
----------------------------   ----------------
Total correction to HF/MINIX       -0.040699309
----------------------------   ----------------


-------------------------   --------------------
FINAL SINGLE POINT ENERGY      -188.586821226677
-------------------------   --------------------



           ************************************************************
           *        Program running with 2 parallel MPI-processes     *
           *              working on a common directory               *
           ************************************************************
------------------------------------------------------------------------------
                         ORCA SCF GRADIENT CALCULATION
------------------------------------------------------------------------------

Nuc. rep. gradient        (SHARK) ... done (  0.0 sec)
HCore & Overlap gradient  (SHARK) ... done (  0.0 sec)
Two-electron gradient     (SHARK) ... done (  0.0 sec)
Dispersion correction             ... done (  0.1 sec)

-------------------
DISPERSION GRADIENT
-------------------

   1   C   :   -0.000000000   -0.000000000   -0.000506584
   2   O   :    0.001014289    0.000000000    0.000251081
   3   H   :    0.000692962    0.000000000    0.000509679
   4   O   :   -0.001014289   -0.000000000    0.000251081
   5   H   :   -0.000692962    0.000000000    0.000509679
   6   H   :    0.000000000    0.000540441   -0.000507468
   7   H   :   -0.000000000   -0.000540441   -0.000507468

Difference to translation invariance:
           :   -0.0000000000    0.0000000000    0.0000000000

Difference to rotation invariance:
           :   -0.0000000000    0.0000000000    0.0000000000

Norm of the Dispersion gradient    ...    0.0022404041
RMS gradient                       ...    0.0004888963
MAX gradient                       ...    0.0010142885
gCP correction                   ... done

------------------
CARTESIAN GRADIENT
------------------

   1   C   :   -0.000000000    0.000000000    0.017685245
   2   O   :   -0.028116076   -0.000000000   -0.104748573
   3   H   :    0.016619664    0.000000000    0.042757186
   4   O   :    0.028116076    0.000000000   -0.104748573
   5   H   :   -0.016619664   -0.000000000    0.042757186
   6   H   :    0.000000000   -0.033458857    0.053148765
   7   H   :   -0.000000000    0.033458857    0.053148765

Difference to translation invariance:
           :   -0.0000000000    0.0000000000    0.0000000000

Difference to rotation invariance:
           :    0.0000000000   -0.0000000000   -0.0000000000

Norm of the Cartesian gradient     ...    0.1895670739
RMS gradient                       ...    0.0413669269
MAX gradient                       ...    0.1047485731

-------
TIMINGS
-------

Total SCF gradient time     ....        0.295 sec

Densities                   ....       0.000 sec  (  0.1%)
One electron gradient       ....       0.010 sec  (  3.2%)
Two electron gradient       ....       0.041 sec  ( 14.0%)

Maximum memory used throughout the entire SCFGRAD-calculation: 23.0 MB
------------------------------------------------------------------------------
                         ORCA GEOMETRY RELAXATION STEP
------------------------------------------------------------------------------

Reading the OPT-File                    .... done
Getting information on internals        .... done
Copying old internal coords+grads       .... done
Making the new internal coordinates     .... (2022 redundants) done
Validating the new internal coordinates .... (2022 redundants) done
Calculating the B-matrix                .... done
Calculating the G,G- and P matrices     .... done
Transforming gradient to internals      .... done
Projecting the internal gradient        .... done
Number of atoms                         ....   7
Number of internal coordinates          ....  18
Current Energy                          ....  -188.586821227 Eh
Current gradient norm                   ....     0.189567074 Eh/bohr
Maximum allowed component of the step   ....  0.300
Current trust radius                    ....  0.300
Updating the Hessian (BFGS)             .... done
Forming the augmented Hessian           .... done
Diagonalizing the augmented Hessian     .... done
Last element of RFO vector              ....  0.911013599
Lowest eigenvalues of augmented Hessian:
 -0.129662088  0.016572362  0.023144725  0.187287354  0.346086510
Length of the computed step             ....  0.452656592
Warning: the length of the step is outside the trust region - taking restricted step instead
The input lambda is                     ....     0.015572
   iter:   5  x=   -0.389628  g=    0.222619 f(x)=     0.003330
The output lambda is                    ....    -0.390115 (9 iterations)
The final length of the internal step   ....  0.300000000
Converting the step to Cartesian space:
 Initial RMS(Int)=    0.0707106781
Transforming coordinates:
 Iter   0:  RMS(Cart)=    0.3154078579 RMS(Int)=    0.0703665845
 Iter   5:  RMS(Cart)=    0.0005477357 RMS(Int)=    0.0001615385
 Iter  10:  RMS(Cart)=    0.0000015732 RMS(Int)=    0.0000011273
done
Storing new coordinates                 .... done
The predicted energy change is          ....    -0.065006807
Previously predicted energy change      ....    -0.194744618
Actually observed energy change         ....    -0.155959112
Ratio of predicted to observed change   ....     0.800839138
New trust radius                        ....     0.450000000

                                .--------------------.
          ----------------------|Geometry convergence|-------------------------
          Item                value                   Tolerance       Converged
          ---------------------------------------------------------------------
          Energy change      -0.1559591121            0.0000050000      NO
          RMS gradient        0.0821381602            0.0001000000      NO
          MAX gradient        0.1623216623            0.0003000000      NO
          RMS step            0.0707106781            0.0020000000      NO
          MAX step            0.1206189070            0.0040000000      NO
          -------------------------------------------------------------------------
          ........................................................
          Max(Bonds)      0.0353      Max(Angles)    6.91
          Max(Dihed)        2.63      Max(Improp)    0.00
          ---------------------------------------------------------------------

The optimization has not yet converged - more geometry cycles are needed


    ---------------------------------------------------------------------------
                         Redundant Internal Coordinates
                            (Angstroem and degrees)

        Definition                    Value    dE/dq     Step     New-Value
    ----------------------------------------------------------------------------
     1. B(O   1,C   0)                1.4248 -0.028706 -0.0055    1.4193   
     2. B(H   2,O   1)                1.0198  0.045366 -0.0353    0.9846   
     3. B(O   3,C   0)                1.4248 -0.028706 -0.0055    1.4193   
     4. B(H   4,O   3)                1.0198  0.045366 -0.0353    0.9846   
     5. B(H   5,C   0)                1.0466 -0.055580  0.0333    1.0799   
     6. B(H   6,C   0)                1.0466 -0.055580  0.0333    1.0799   
     7. A(H   5,C   0,H   6)          119.88  0.029454    3.44    123.32   
     8. A(O   1,C   0,H   5)           98.22 -0.162322    6.91    105.13   
     9. A(O   3,C   0,H   5)           98.22 -0.162322    6.91    105.13   
    10. A(O   1,C   0,H   6)           98.22 -0.162322    6.91    105.13   
    11. A(O   3,C   0,H   6)           98.22 -0.162322    6.91    105.13   
    12. A(C   0,O   1,H   2)          119.29  0.013116   -2.11    117.17   
    13. A(C   0,O   3,H   4)          119.29  0.013116   -2.11    117.17   
    14. D(H   2,O   1,C   0,H   5)    119.02  0.026892   -2.63    116.38   
    15. D(H   2,O   1,C   0,H   6)   -119.02 -0.026892    2.63   -116.38   
    16. D(H   4,O   3,C   0,H   5)   -119.02 -0.026892    2.63   -116.38   
    17. D(H   4,O   3,O   1,H   2)      0.00 -0.000000    0.00      0.00   
    18. D(H   4,O   3,C   0,H   6)    119.02  0.026892   -2.63    116.38   
    ----------------------------------------------------------------------------

Geometry step timings:
Preparation and reading OPT file:      0.008 s ( 7.513 %)
Internal coordinates            :      0.003 s ( 2.531 %)
B/P matrices and projection     :      0.004 s ( 3.383 %)
Hessian update/contruction      :      0.021 s (19.782 %)
Making the step                 :      0.014 s (13.372 %)
Converting the step to Cartesian:      0.003 s ( 2.663 %)
Storing new data                :      0.006 s ( 5.399 %)
Checking convergence            :      0.021 s (19.417 %)
Final printing                  :      0.028 s (25.932 %)
Total time                      :      0.108 s

Time for energy+gradient        :     14.678 s
Time for complete geometry iter :     15.670 s

         *************************************************************
         *                GEOMETRY OPTIMIZATION CYCLE   3            *
         *************************************************************
---------------------------------
CARTESIAN COORDINATES (ANGSTROEM)
---------------------------------
  C      0.000000    0.000000   -0.441666
  O      1.207283    0.000000    0.304511
  H      1.129280   -0.000000    1.285977
  O     -1.207283   -0.000000    0.304511
  H     -1.129280    0.000000    1.285977
  H     -0.000000    0.942043   -0.969656
  H     -0.000000   -0.942043   -0.969656

----------------------------
CARTESIAN COORDINATES (A.U.)
----------------------------
  NO LB      ZA    FRAG     MASS         X           Y           Z
   0 C     6.0000    0    12.011    0.000000    0.000000   -0.834627
[...]
-----------------------------------------------------------------------
Total Enthalpy                    ...   -188.58763010 Eh


Note: Rotational entropy computed according to Herzberg 
Infrared and Raman Spectra, Chapter V,1, Van Nostrand Reinhold, 1945 
Point Group:  C2v, Symmetry Number:   2  
Rotational constants in cm-1:     1.350231     0.335136     0.283088 

Vibrational entropy computed according to the QRRHO of S. Grimme
Chem.Eur.J. 2012 18 9955 using a reference frequency of 100.0 cm-1


-------
ENTROPY
-------

The entropy contributions are T*S = T*(S(el)+S(vib)+S(rot)+S(trans))
     S(el)   - electronic entropy
     S(vib)  - vibrational entropy
     S(rot)  - rotational entropy
     S(trans)- translational entropy
The entropies will be listed as multiplied by the temperature to get
units of energy

Electronic entropy                ...      0.00000000 Eh      0.00 kcal/mol
Vibrational entropy               ...      0.00108959 Eh      0.68 kcal/mol
Rotational entropy                ...      0.01374163 Eh      8.62 kcal/mol
Translational entropy             ...      0.02485543 Eh     15.60 kcal/mol
-----------------------------------------------------------------------
Final entropy term                ...      0.03968665 Eh     24.90 kcal/mol

In case the symmetry of your molecule has not been determined correctly
or in case you have a reason to use a different symmetry number we print 
out the resulting rotational entropy values for sn=1,12:

 non-linear molecules -----------------------------------
|  sn= 1 | S(rot)=       0.01461965 Eh      9.17 kcal/mol|
|  sn= 2 | S(rot)=       0.01374163 Eh      8.62 kcal/mol|
|  sn= 3 | S(rot)=       0.01322802 Eh      8.30 kcal/mol|
|  sn= 4 | S(rot)=       0.01286361 Eh      8.07 kcal/mol|
|  sn= 5 | S(rot)=       0.01258095 Eh      7.89 kcal/mol|
|  sn= 6 | S(rot)=       0.01235000 Eh      7.75 kcal/mol|
|  sn= 7 | S(rot)=       0.01215473 Eh      7.63 kcal/mol|
|  sn= 8 | S(rot)=       0.01198558 Eh      7.52 kcal/mol|
|  sn= 9 | S(rot)=       0.01183639 Eh      7.43 kcal/mol|
|  sn=10 | S(rot)=       0.01170292 Eh      7.34 kcal/mol|
|  sn=11 | S(rot)=       0.01158219 Eh      7.27 kcal/mol|
|  sn=12 | S(rot)=       0.01147197 Eh      7.20 kcal/mol|
 linear molecules ---------------------------------------
|  Dinfh | S(rot)=       0.00911598 Eh      5.72 kcal/mol|
|  Cinfv | S(rot)=       0.00999400 Eh      6.27 kcal/mol|
 --------------------------------------------------------


-------------------
GIBBS FREE ENERGY
-------------------

The Gibbs free energy is G = H - T*S

Total enthalpy                    ...   -188.58763010 Eh 
Total entropy correction          ...     -0.03968665 Eh    -24.90 kcal/mol
-----------------------------------------------------------------------
Final Gibbs free energy         ...   -188.62731675 Eh

For completeness - the Gibbs free energy minus the electronic energy
G-E(el)                           ...      0.02797255 Eh     17.55 kcal/mol


The first frequency considered to be a vibration is 8
The total number of vibrations considered is 13


--------------------------
THERMOCHEMISTRY AT 500.00K
--------------------------

Temperature         ...   500.00 K
Pressure            ...     1.00 atm
Total Mass          ...    48.04 AMU
Quasi RRHO          ...     True
Cut-Off Frequency   ...     1.00 cm^-1

Throughout the following assumptions are being made:
  (1) The electronic state is orbitally nondegenerate
  (2) There are no thermally accessible electronically excited states
  (3) Hindered rotations indicated by low frequency modes are not
      treated as such but are treated as vibrations and this may
      cause some error
  (4) All equations used are the standard statistical mechanics
      equations for an ideal gas
  (5) All vibrations are strictly harmonic

freq.     541.01  E(vib)   ...       0.41 
freq.    1087.67  E(vib)   ...       0.14 
freq.    1216.47  E(vib)   ...       0.11 
freq.    1245.55  E(vib)   ...       0.10 
freq.    1320.09  E(vib)   ...       0.09 
freq.    1390.72  E(vib)   ...       0.07 
freq.    1567.80  E(vib)   ...       0.05 
freq.    1596.44  E(vib)   ...       0.05 
freq.    1741.72  E(vib)   ...       0.03 
freq.    3455.42  E(vib)   ...       0.00 
freq.    3528.25  E(vib)   ...       0.00 
freq.    4211.96  E(vib)   ...       0.00 
freq.    4217.37  E(vib)   ...       0.00 

------------
INNER ENERGY
------------

The inner energy is: U= E(el) + E(ZPE) + E(vib) + E(rot) + E(trans)
    E(el)   - is the total energy from the electronic structure calculation
              = E(kin-el) + E(nuc-el) + E(el-el) + E(nuc-nuc)
    E(ZPE)  - the the zero temperature vibrational energy from the frequency calculation
    E(vib)  - the the finite temperature correction to E(ZPE) due to population
              of excited vibrational states
    E(rot)  - is the rotational thermal energy
    E(trans)- is the translational thermal energy

Summary of contributions to the inner energy U:
Electronic energy                ...   -188.65528929 Eh
Zero point energy                ...      0.06178503 Eh      38.77 kcal/mol
Thermal vibrational correction   ...      0.00168400 Eh       1.06 kcal/mol
Thermal rotational correction    ...      0.00237510 Eh       1.49 kcal/mol
Thermal translational correction ...      0.00237510 Eh       1.49 kcal/mol
-----------------------------------------------------------------------
Total thermal energy                   -188.58707007 Eh


Summary of corrections to the electronic energy:
(perhaps to be used in another calculation)
Total thermal correction                  0.00643420 Eh       4.04 kcal/mol
Non-thermal (ZPE) correction              0.06178503 Eh      38.77 kcal/mol
-----------------------------------------------------------------------
Total correction                          0.06821923 Eh      42.81 kcal/mol


--------
ENTHALPY
--------

The enthalpy is H = U + kB*T
                kB is Boltzmann's constant
Total thermal energy              ...   -188.58707007 Eh 
Thermal Enthalpy correction       ...      0.00158345 Eh       0.99 kcal/mol
-----------------------------------------------------------------------
Total Enthalpy                    ...   -188.58548662 Eh


Note: Rotational entropy computed according to Herzberg 
Infrared and Raman Spectra, Chapter V,1, Van Nostrand Reinhold, 1945 
Point Group:  C2v, Symmetry Number:   2  
Rotational constants in cm-1:     1.350231     0.335136     0.283088 

Vibrational entropy computed according to the QRRHO of S. Grimme
Chem.Eur.J. 2012 18 9955 using a reference frequency of 100.0 cm-1


-------
ENTROPY
-------

The entropy contributions are T*S = T*(S(el)+S(vib)+S(rot)+S(trans))
     S(el)   - electronic entropy
     S(vib)  - vibrational entropy
     S(rot)  - rotational entropy
     S(trans)- translational entropy
The entropies will be listed as multiplied by the temperature to get
units of energy

Electronic entropy                ...      0.00000000 Eh      0.00 kcal/mol
Vibrational entropy               ...      0.00233265 Eh      1.46 kcal/mol
Rotational entropy                ...      0.01770703 Eh     11.11 kcal/mol
Translational entropy             ...      0.03195260 Eh     20.05 kcal/mol
-----------------------------------------------------------------------
Final entropy term                ...      0.05199228 Eh     32.63 kcal/mol

In case the symmetry of your molecule has not been determined correctly
or in case you have a reason to use a different symmetry number we print 
out the resulting rotational entropy values for sn=1,12:

 non-linear molecules -----------------------------------
|  sn= 1 | S(rot)=       0.01880456 Eh     11.80 kcal/mol|
|  sn= 2 | S(rot)=       0.01770703 Eh     11.11 kcal/mol|
|  sn= 3 | S(rot)=       0.01706501 Eh     10.71 kcal/mol|
|  sn= 4 | S(rot)=       0.01660950 Eh     10.42 kcal/mol|
|  sn= 5 | S(rot)=       0.01625617 Eh     10.20 kcal/mol|
|  sn= 6 | S(rot)=       0.01596748 Eh     10.02 kcal/mol|
|  sn= 7 | S(rot)=       0.01572340 Eh      9.87 kcal/mol|
|  sn= 8 | S(rot)=       0.01551197 Eh      9.73 kcal/mol|
|  sn= 9 | S(rot)=       0.01532547 Eh      9.62 kcal/mol|
|  sn=10 | S(rot)=       0.01515864 Eh      9.51 kcal/mol|
|  sn=11 | S(rot)=       0.01500773 Eh      9.42 kcal/mol|
|  sn=12 | S(rot)=       0.01486996 Eh      9.33 kcal/mol|
 linear molecules ---------------------------------------
|  Dinfh | S(rot)=       0.01174830 Eh      7.37 kcal/mol|
|  Cinfv | S(rot)=       0.01284583 Eh      8.06 kcal/mol|
 --------------------------------------------------------


-------------------
GIBBS FREE ENERGY
-------------------

The Gibbs free energy is G = H - T*S

Total enthalpy                    ...   -188.58548662 Eh 
Total entropy correction          ...     -0.05199228 Eh    -32.63 kcal/mol
-----------------------------------------------------------------------
Final Gibbs free energy         ...   -188.63747890 Eh

For completeness - the Gibbs free energy minus the electronic energy
G-E(el)                           ...      0.01781040 Eh     11.18 kcal/mol


The first frequency considered to be a vibration is 8
The total number of vibrations considered is 13


--------------------------
THERMOCHEMISTRY AT 600.00K
--------------------------

Temperature         ...   600.00 K
Pressure            ...     1.00 atm
Total Mass          ...    48.04 AMU
Quasi RRHO          ...     True
Cut-Off Frequency   ...     1.00 cm^-1

Throughout the following assumptions are being made:
  (1) The electronic state is orbitally nondegenerate
  (2) There are no thermally accessible electronically excited states
  (3) Hindered rotations indicated by low frequency modes are not
      treated as such but are treated as vibrations and this may
      cause some error
  (4) All equations used are the standard statistical mechanics
      equations for an ideal gas
  (5) All vibrations are strictly harmonic

freq.     541.01  E(vib)   ...       0.58 
freq.    1087.67  E(vib)   ...       0.25 
freq.    1216.47  E(vib)   ...       0.20 
freq.    1245.55  E(vib)   ...       0.19 
freq.    1320.09  E(vib)   ...       0.17 
freq.    1390.72  E(vib)   ...       0.15 
freq.    1567.80  E(vib)   ...       0.11 
freq.    1596.44  E(vib)   ...       0.10 
freq.    1741.72  E(vib)   ...       0.08 
freq.    3455.42  E(vib)   ...       0.00 
freq.    3528.25  E(vib)   ...       0.00 
freq.    4211.96  E(vib)   ...       0.00 
freq.    4217.37  E(vib)   ...       0.00 

------------
INNER ENERGY
------------

The inner energy is: U= E(el) + E(ZPE) + E(vib) + E(rot) + E(trans)
    E(el)   - is the total energy from the electronic structure calculation
              = E(kin-el) + E(nuc-el) + E(el-el) + E(nuc-nuc)
    E(ZPE)  - the the zero temperature vibrational energy from the frequency calculation
    E(vib)  - the the finite temperature correction to E(ZPE) due to population
              of excited vibrational states
    E(rot)  - is the rotational thermal energy
    E(trans)- is the translational thermal energy

Summary of contributions to the inner energy U:
Electronic energy                ...   -188.65528929 Eh
Zero point energy                ...      0.06178503 Eh      38.77 kcal/mol
Thermal vibrational correction   ...      0.00290342 Eh       1.82 kcal/mol
Thermal rotational correction    ...      0.00285012 Eh       1.79 kcal/mol
Thermal translational correction ...      0.00285012 Eh       1.79 kcal/mol
-----------------------------------------------------------------------
Total thermal energy                   -188.58490061 Eh


Summary of corrections to the electronic energy:
(perhaps to be used in another calculation)
Total thermal correction                  0.00860366 Eh       5.40 kcal/mol
Non-thermal (ZPE) correction              0.06178503 Eh      38.77 kcal/mol
-----------------------------------------------------------------------
Total correction                          0.07038869 Eh      44.17 kcal/mol


--------
ENTHALPY
--------

The enthalpy is H = U + kB*T
                kB is Boltzmann's constant
Total thermal energy              ...   -188.58490061 Eh 
Thermal Enthalpy correction       ...      0.00190014 Eh       1.19 kcal/mol
-----------------------------------------------------------------------
Total Enthalpy                    ...   -188.58300047 Eh


Note: Rotational entropy computed according to Herzberg 
Infrared and Raman Spectra, Chapter V,1, Van Nostrand Reinhold, 1945 
Point Group:  C2v, Symmetry Number:   2  
Rotational constants in cm-1:     1.350231     0.335136     0.283088 

Vibrational entropy computed according to the QRRHO of S. Grimme
Chem.Eur.J. 2012 18 9955 using a reference frequency of 100.0 cm-1


-------
ENTROPY
-------

The entropy contributions are T*S = T*(S(el)+S(vib)+S(rot)+S(trans))
     S(el)   - electronic entropy
     S(vib)  - vibrational entropy
     S(rot)  - rotational entropy
     S(trans)- translational entropy
The entropies will be listed as multiplied by the temperature to get
units of energy

Electronic entropy                ...      0.00000000 Eh      0.00 kcal/mol
Vibrational entropy               ...      0.00412758 Eh      2.59 kcal/mol
Rotational entropy                ...      0.02176807 Eh     13.66 kcal/mol
Translational entropy             ...      0.03920918 Eh     24.60 kcal/mol
-----------------------------------------------------------------------
Final entropy term                ...      0.06510483 Eh     40.85 kcal/mol

In case the symmetry of your molecule has not been determined correctly
or in case you have a reason to use a different symmetry number we print 
out the resulting rotational entropy values for sn=1,12:

 non-linear molecules -----------------------------------
|  sn= 1 | S(rot)=       0.02308510 Eh     14.49 kcal/mol|
|  sn= 2 | S(rot)=       0.02176807 Eh     13.66 kcal/mol|
|  sn= 3 | S(rot)=       0.02099765 Eh     13.18 kcal/mol|
|  sn= 4 | S(rot)=       0.02045104 Eh     12.83 kcal/mol|
|  sn= 5 | S(rot)=       0.02002705 Eh     12.57 kcal/mol|
|  sn= 6 | S(rot)=       0.01968062 Eh     12.35 kcal/mol|
|  sn= 7 | S(rot)=       0.01938772 Eh     12.17 kcal/mol|
|  sn= 8 | S(rot)=       0.01913400 Eh     12.01 kcal/mol|
|  sn= 9 | S(rot)=       0.01891020 Eh     11.87 kcal/mol|
|  sn=10 | S(rot)=       0.01871001 Eh     11.74 kcal/mol|
|  sn=11 | S(rot)=       0.01852891 Eh     11.63 kcal/mol|
|  sn=12 | S(rot)=       0.01836359 Eh     11.52 kcal/mol|
 linear molecules ---------------------------------------
|  Dinfh | S(rot)=       0.01444438 Eh      9.06 kcal/mol|
|  Cinfv | S(rot)=       0.01576142 Eh      9.89 kcal/mol|
 --------------------------------------------------------


-------------------
GIBBS FREE ENERGY
-------------------

The Gibbs free energy is G = H - T*S

Total enthalpy                    ...   -188.58300047 Eh 
Total entropy correction          ...     -0.06510483 Eh    -40.85 kcal/mol
-----------------------------------------------------------------------
Final Gibbs free energy         ...   -188.64810530 Eh

For completeness - the Gibbs free energy minus the electronic energy
G-E(el)                           ...      0.00718399 Eh      4.51 kcal/mol


Maximum memory used throughout the entire PROP-calculation: 23.1 MB

--------------------------------
SUGGESTED CITATIONS FOR THIS RUN
--------------------------------

Below you find a list of papers that are relevant to this ORCA run
We neither can nor want to force you to cite these papers, but we appreciate if you do
You receive ORCA, which is the product of decades of hard work by many enthusiastic individuals, for free
The only thing we kindly ask in return is that you cite our papers,
We deeply appreciate it, if you show your appreciation for ORCA by not just citing the generic ORCA reference.

Please note that relegating all ORCA citations to the supporting information does *not* help us.
SI sections are not indexed - citations you put there will not count into any citation statistics
But we need these citations in order to attract the funding resources that allow us to do what we are doing

Therefore, if you are a happy ORCA user, please consider citing a few of the papers listed below in the main body of your paper

In addition to the list printed below, the program has created the file CH₂OH2.bibtex that contains the list in bibtex format
You can import this file easily into all common literature databanks and citation aid programs


List of essential papers. We consider these as the minimum necessary citations

  1. Neese, F.
     Software update: the ORCA program system, version 6.0
     WIRES Comput. Molec. Sci. 2025 15(1), e70019
     doi.org/10.1002/wcms.7019

List of papers to cite with high priority. The work reported in these papers was absolutely
necessary for this run to complete.
Our perspective: the developers of density functionals and basis sets usually get cited in chemistry papers
Good! But without the algorithms to do something with them, the functionals or basis sets would not do anything.
Hence, in our opinion, the algorithm design and method developments papers are equally worthy of getting cited

  1. Grimme, S.; Antony, J.; Ehrlich, S.; Krieg, H.
     A consistent and accurate ab initio parametrization of density functional dispersion correction (DFT-D) for the 94 elements H-Pu
     J. Chem. Phys. 2010 132 , 154104
     doi.org/10.1063/1.3382344
  2. Grimme, S.; Ehrlich, S.; Goerigk, L.
     Effect of the damping function in dispersion corrected density functional theory
     J. Comput. Chem. 2011 32(7), 1456-1465
     doi.org/10.1002/jcc.21759
  3. Bykov, D.; Petrenko, T.; Izsak, R.; Kossmann, S.; Becker, U.; Valeev, E.; Neese, F.
     Efficient implementation of the analytic second derivatives of Hartree-Fock and hybrid DFT energies: a detailed analysis of different approximations
     Molec. Phys. 2015 113 , 1961-1977
     doi.org/10.1080/00268976.2015.1025114
  4. Neese, F.
     The SHARK Integral Generation and Digestion System
     J. Comp. Chem. 2022 44(3), 381
     doi.org/10.1002/jcc.26942

List of suggested additional citations. These are papers that are important in the 'surrounding' of 
of this run, or papers that preceded the highly important papers. If you like your results we are grateful for a citation.

  1. Neese, F.
     The ORCA program system
     WIRES Comput. Molec. Sci. 2012 2(1), 73-78
     doi.org/10.1002/wcms.81
  2. Neese, F.
     Software update: the ORCA program system, version 4.0
     WIRES Comput. Molec. Sci. 2018 8(1), 1-6
     doi.org/10.1002/wcms.1327
  3. Neese, F.; Wennmohs, F.; Becker, U.; Riplinger, C.
     The ORCA quantum chemistry program package
     J. Chem. Phys. 2020 152(22), 224108
     doi.org/10.1063/5.0004608
  4. Neese, F.
     Software update: The ORCA program system—Version 5.0
     WIRES Comput. Molec. Sci. 2022 12(1), e1606
     doi.org/10.1002/wcms.1606

List of optional additional citations

  1. Neese, F.
     Approximate second-order SCF convergence for spin unrestricted wavefunctions
     Chem. Phys. Lett. 2000 325(1-3), 93-98
     doi.org/10.1016/s0009-2614(00)00662-x

Timings for individual modules:

Sum of individual times          ...      162.225 sec (=   2.704 min)
Startup calculation              ...       26.882 sec (=   0.448 min)  16.6 %
SCF iterations                   ...       67.821 sec (=   1.130 min)  41.8 %
Property integrals               ...        7.469 sec (=   0.124 min)   4.6 %
SCF Response                     ...       47.890 sec (=   0.798 min)  29.5 %
Property calculations            ...        3.969 sec (=   0.066 min)   2.4 %
SCF Gradient evaluation          ...        6.986 sec (=   0.116 min)   4.3 %
Geometry relaxation              ...        1.208 sec (=   0.020 min)   0.7 %
                             ****ORCA TERMINATED NORMALLY****
TOTAL RUN TIME: 0 days 0 hours 2 minutes 57 seconds 372 msec
