
                                 *****************
                                 * O   R   C   A *
                                 *****************

                                            #,                                       
                                            ###                                      
                                            ####                                     
                                            #####                                    
                                            ######                                   
                                           ########,                                 
                                     ,,################,,,,,                         
                               ,,#################################,,                 
                          ,,##########################################,,             
                       ,#########################################, ''#####,          
                    ,#############################################,,   '####,        
                  ,##################################################,,,,####,       
                ,###########''''           ''''###############################       
              ,#####''   ,,,,##########,,,,          '''####'''          '####       
            ,##' ,,,,###########################,,,                        '##       
           ' ,,###''''                  '''############,,,                           
         ,,##''                                '''############,,,,        ,,,,,,###''
      ,#''                                            '''#######################'''  
     '                                                          ''''####''''         
             ,#######,   #######,   ,#######,      ##                                
            ,#'     '#,  ##    ##  ,#'     '#,    #''#        ,####,    ,#,          
            ##       ##  ##   ,#'  ##            #'  '#       #'       ,# #          
            ##       ##  #######   ##           ,######,      #####,      #          
            '#,     ,#'  ##    ##  '#,     ,#' ,#      #,     #,   #      #          
             '#######'   ##     ##  '#######'  #'      '#     '####' #    #          



                #########################################################
                #                        -***-                          #
                #          Department of theory and spectroscopy        #
                #                                                       #
                #                      Frank Neese                      #
                #                                                       #
                #     Directorship, Architecture, Infrastructure        #
                #                    SHARK, DRIVERS                     #
                #        Core code/Algorithms in most modules           #
                #                                                       #
                #        Max Planck Institute fuer Kohlenforschung      #
                #                Kaiser Wilhelm Platz 1                 #
                #                 D-45470 Muelheim/Ruhr                 #
                #                      Germany                          #
                #                                                       #
                #                  All rights reserved                  #
                #                        -***-                          #
                #########################################################


                         Program Version 6.1.0  -  RELEASE   -
                                (GIT: $679e74b$)
                          ($2025-06-10 18:02:51 +0200$)


 With contributions from (in alphabetic order):
[Max-Planck-Institut fuer Kohlenforschung]                               
  Daniel Aravena         : Magnetic Suceptibility                        
  Michael Atanasov       : Ab Initio Ligand Field Theory (pilot matlab implementation)
  Alexander A. Auer      : GIAO ZORA, VPT2 properties, NMR spectrum      
  Ute Becker             : All parallelization in ORCA, NUMFREQ, NUMCALC 
  Giovanni Bistoni       : ED, misc. LED, open-shell LED, HFLD           
  Dmytro Bykov           : pre 5.0 version of the SCF Hessian            
  Marcos Casanova-Páez   : Triplet and SCS-CIS(D). UHF-(DLPNO)-IP/EA/STEOM-CCSD. UHF-CVS-IP/STEOM-CCSD   
  Vijay G. Chilkuri      : MRCI spin determinant printing, contributions to CSF-ICE 
  Pauline Colinet        : FMM embedding                                 
  Dipayan Datta          : RHF DLPNO-CCSD density                        
  Achintya Kumar Dutta   : EOM-CC, STEOM-CC                              
  Nicolas Foglia         : Exact transition moments, OPA infrastructure, MCD improvements    
  Dmitry Ganyushin       : Spin-Orbit,Spin-Spin,Magnetic field MRCI      
  Miquel Garcia-Rates    : C-PCM and meta-GGA Hessian, CCSD/C-PCM, Gaussian charge scheme 
  Tiago L. C. Gouveia    : GS-ROHF, GS-ROCIS                             
  Yang Guo               : DLPNO-NEVPT2, F12-NEVPT2, CIM, IAO-localization        
  Andreas Hansen         : Spin unrestricted coupled pair/coupled cluster methods 
  Ingolf Harden          : AUTO-CI MPn and infrastructure                
  Benjamin Helmich-Paris : MC-RPA, TRAH-(SCF,CASSCF), AVAS, COSX integrals, SCF dyn. polar., MC-PDFT, srDFT 
  Lee Huntington         : MR-EOM, pCC                                   
  Robert Izsak           : Overlap fitted RIJCOSX, COSX-SCS-MP3, EOM     
  Riya Kayal             : Wick's Theorem for AUTO-CI, AUTO-CI UHF-CCSDT 
  Emily Kempfer          : AUTO-CI RHF CISDT and CCSDT, approximate NEVPT4
  Christian Kollmar      : KDIIS, OOCD, Brueckner-CCSD(T), CCSD density, CASPT2, CASPT2-K, improved NEVPT2 
  Axel Koslowski         : Symmetry handling                             
  Simone Kossmann        : meta-GGA functionals, TD-DFT gradient, OOMP2, (MP2 Hessian; deprecated post 5.0) 
  Lucas Lang             : DCDCAS, Hyperfine gauge corrections, ICE-SOC+SSC
  Marvin Lechner         : AUTO-CI (C++ implementation), FIC-MRCC        
  Spencer Leger          : CASSCF response                               
  Dagmar Lenk            : GEPOL surface, SMD, ORCA-2-JSON               
  Dimitrios Liakos       : Extrapolation schemes; Compound Job, Property file
  Dimitrios Manganas     : Further ROCIS development; embedding schemes. LFT, Crystal Embedding 
  Dimitrios Pantazis     : SARC Basis sets                               
  Anastasios Papadopoulos: AUTO-CI, single reference methods and gradients 
  Taras Petrenko         : pre 6.0 DFT Hessian and TD-DFT gradient,  ECA, NRVS 
  Petra Pikulova         : Analytic Raman intensities                    
  Peter Pinski           : DLPNO-MP2, DLPNO-MP2 Gradient                 
  Shashank Vittal Rao    : ES-AILFT, MagRelax                            
  Christoph Reimann      : Effective Core Potentials                     
  Marius Retegan         : Local ZFS, SOC                                
  Christoph Riplinger    : Optimizer, TS searches, QM/MM, DLPNO-CCSD(T), (RO)-DLPNO pert. Triples 
  Michael Roemelt        : Original ROCIS implementation, recursive CI coupling coefficients
  Masaaki Saitow         : Open-shell DLPNO-CCSD energy and density      
  Barbara Sandhoefer     : DKH picture change effects                    
  Yorick L. A. Schmerwitz: GMF and freeze-and-release deltaSCF, NEB S-IDPP initial path                    
  Kantharuban Sivalingam : CASSCF convergence/infrastructure, NEVPT2, NEVPT3, NEVPT4(SD), FIC-MRCI and CEPA variants
  Bernardo de Souza      : ESD, SOC TD-DFT                               
  Georgi L. Stoychev     : AutoAux, RI-MP2 NMR, DLPNO-MP2 response, X2C  
  Van Anh Tran           : RI-MP2 g-tensors                              
  Willem Van den Heuvel  : Paramagnetic NMR                              
  Zikuan Wang            : NOTCH, Electric field optimization            
  Frank Wennmohs         : Technical directorship and infrastructure     
  Hang Xu                : AUTO-CI-Response properties                   
                                                                         
[FACCTs GmbH]                                                            
  Markus Bursch, Nicolas Foglia, Miquel Garcia-Rates, Ingolf Harden, Hagen Neugebauer, Anastasios Papadopoulos, 
  Christoph Riplinger, Bernardo de Souza, Georgi L. Stoychev                                                    
                                                                 
  APM, various basis sets, CI-OPT, improved COSX, DLPNO-Multilevel,           
  DOCKER, DRACO, updates on ESD, Fragmentator, GOAT, IRC, LR-CPCM, L-BFGS, MBIS, meta-GGA TD-DFT gradient, ML-optimized integration grids, 
  MM, NACMEs, nearIR, NEB, NEB-TS, NL-DFT gradient (VV10), 2- and 3-layer-ONIOM, interface openCOSMO-RS, QMMM,   
  Crystal-QMMM, RESP, rigid body optimization, SF, symmetry and pop. for TD-DFT, various functionals, SOLVATOR                                   
                                                                         
[Other institutions]                                                     
  V. Asgeirsson          : NEB                                           
  Christoph Bannwarth    : sTDA-DFT, sTD-DFT, PBEh-3c, B97-3c, D3        
  Giovanni Bistoni       : ETS/NOCV, ADLD/ADEX, COVALED                  
  Martin Brehm           : Molecular dynamics                            
  Ronald Cardenas        : ETS/NOCV                                      
  Martina Colucci        : COVALED                                       
  Sebastian Ehlert       : rSCAN, r2SCAN, r2SCAN-3c, D4, dhf basis sets  
  Marvin Friede          : D4 for Fr, Ra, Ac-Lr                          
  Lars Goerigk           : TD-DFT with DH, B97 family of functionals     
  Stefan Grimme          : VdW corrections, initial TS optimization, DFT functionals, gCP, sTDA/sTD-DF 
  Waldemar Hujo          : DFT-NL                                        
  H. Jonsson             : NEB                                           
  Holger Kruse           : gCP                                           
  Marcel Mueller         : wB97X-3c, vDZP basis set                      
  Hagen Neugebauer       : wr2SCAN, Native XTB                           
  Gianluca Regni         : ADLD/ADEX                                     
  Tobias Risthaus        : pre 6.0 range-separated hybrid DFT and stability analysis
  Lukas Wittmann         : regularized MP2, r2SCAN double-hybrids, wr2SCAN        
                                                                         
We gratefully acknowledge several colleagues who have allowed us to      
interface, adapt or use parts of their codes:                            
  Ed Valeev, F. Pavosevic, A. Kumar             : LibInt (2-el integral package), F12 methods 
  Garnet Chan, S. Sharma, J. Yang, R. Olivares  : DMRG                   
  Ulf Ekstrom                                   : XCFun DFT Library      
  Mihaly Kallay                                 : mrcc  (arbitrary order and MRCC methods)
  Frank Weinhold                                : gennbo (NPA and NBO analysis)           
  Simon Mueller                                 : openCOSMO-RS                            
  Christopher J. Cramer and Donald G. Truhlar   : smd solvation model                     
  S Lehtola, MJT Oliveira, MAL Marques          : LibXC Library                           
  Liviu Ungur et al                             : ANISO software                          


 Your calculation uses the libint2 library for the computation of 2-el integrals
 For citations please refer to: http://libint.valeyev.net

 Your ORCA version has been built with support for libXC version: 7.0.0
 For citations please refer to: https://libxc.gitlab.io

 This ORCA versions uses:
   CBLAS   interface :  Fast vector & matrix operations
   LAPACKE interface :  Fast linear algebra routines
   SCALAPACK package :  Parallel linear algebra routines
   Shared memory     :  Shared parallel matrices
   BLAS/LAPACK       :  OpenBLAS 0.3.29  USE64BITINT DYNAMIC_ARCH NO_AFFINITY Zen SINGLE_THREADED
        Core in use  :  Zen
   Copyright (c) 2011-2014, The OpenBLAS Project


  ***********************************
  * Starting time: Thu Nov 27 22:47:57 2025
  * Host name:     vbox
  * Process ID:    4504
  * Working dir.:  /media/sf___/Formaldehyde_Project/tests
  ***********************************

NOTE: MaxCore=1000 MB was set to SCF,MP2,MDCI,CIPSI,MRCI,RASCI and CIS
      => If you want to overwrite this, your respective input block should be placed after the MaxCore statement
Your calculation utilizes the geometrical counterpoise correction gCP
Please cite in your paper:
H.Kruse, S. Grimme J.Chem.Phys., 136, (2012), 154101 
   

Your calculation utilizes the atom-pairwise dispersion correction
with the Becke-Johnson damping scheme (D3BJ)


================================================================================

----- Orbital basis set information -----
Your calculation utilizes the basis: MINIX,
   a combination of small basis sets by S. Grimme (see manual for definitions).

================================================================================
                                        WARNINGS
                       Please study these warnings very carefully!
================================================================================


WARNING: Geometry Optimization
  ===> : Switching off AutoStart
         For restart on a previous wavefunction, please use MOREAD

================================================================================
                                       INPUT FILE
================================================================================
NAME = H2O.inp
|  1> ! HF-3c OPT FREQ
|  2> %freq
|  3> Temp 300,400,500,600
|  4> end
|  5> %pal nprocs 2 end
|  6> %maxcore 1000
|  7> 
|  8> * xyz 0 1
|  9> O    0.00000000  0.00000000  0.11700000
| 10> H    0.00000000  0.75700000 -0.46900000
| 11> H    0.00000000 -0.75700000 -0.46900000
| 12> *
| 13> 
| 14>                          ****END OF INPUT****
================================================================================

                       *****************************
                       * Geometry Optimization Run *
                       *****************************

Geometry optimization settings:
Update method            Update   .... BFGS
Choice of coordinates    CoordSys .... (2022) Redundant Internals
Initial Hessian          InHess   .... Almloef's Model
Max. no of cycles        MaxIter  .... 50

Convergence Tolerances:
Energy Change            TolE     ....  5.0000e-06 Eh
Max. Gradient            TolMAXG  ....  3.0000e-04 Eh/bohr
RMS Gradient             TolRMSG  ....  1.0000e-04 Eh/bohr
Max. Displacement        TolMAXD  ....  4.0000e-03 bohr
RMS Displacement         TolRMSD  ....  2.0000e-03 bohr
Strict Convergence                .... False

------------------------------------------------------------------------------
                        ORCA OPTIMIZATION COORDINATE SETUP
------------------------------------------------------------------------------

The optimization will be done in redundant internal coordinates (2022)
Making redundant internal coordinates   ...  (2022 redundants) done
Evaluating the initial hessian          ...  (Almloef) done
Evaluating the coordinates              ...  done
Calculating the B-matrix                .... done
Calculating the G-matrix                .... done
The number of degrees of freedom        ....    3

    -----------------------------------------------------------------
                    Redundant Internal Coordinates


    -----------------------------------------------------------------
         Definition                    Initial Value    Approx d2E/dq
    -----------------------------------------------------------------
      1. B(H   1,O   0)                  0.9573         0.525117   
      2. B(H   2,O   0)                  0.9573         0.525117   
      3. A(H   1,O   0,H   2)          104.5125         0.322877   
    -----------------------------------------------------------------

Number of atoms                         .... 3
Number of degrees of freedom            .... 3


         *************************************************************
         *                GEOMETRY OPTIMIZATION CYCLE   1            *
         *************************************************************
---------------------------------
CARTESIAN COORDINATES (ANGSTROEM)
---------------------------------
  O      0.000000    0.000000    0.117000
  H      0.000000    0.757000   -0.469000
  H      0.000000   -0.757000   -0.469000

----------------------------
CARTESIAN COORDINATES (A.U.)
----------------------------
  NO LB      ZA    FRAG     MASS         X           Y           Z
   0 O     8.0000    0    15.999    0.000000    0.000000    0.221098
   1 H     1.0000    0     1.008    0.000000    1.430523   -0.886282
   2 H     1.0000    0     1.008    0.000000   -1.430523   -0.886282

--------------------------------
INTERNAL COORDINATES (ANGSTROEM)
--------------------------------
 O      0   0   0     0.000000000000     0.00000000     0.00000000
 H      1   0   0     0.957311339116     0.00000000     0.00000000
 H      1   2   0     0.957311339116   104.51249573     0.00000000

---------------------------
INTERNAL COORDINATES (A.U.)
---------------------------
 O      0   0   0     0.000000000000     0.00000000     0.00000000
 H      1   0   0     1.809056255827     0.00000000     0.00000000
 H      1   2   0     1.809056255827   104.51249573     0.00000000

---------------------
BASIS SET INFORMATION
---------------------
There are 2 groups of distinct atoms

 Group   1 Type O   : 6s3p contracted to 2s1p pattern {33/3}
 Group   2 Type H   : 3s contracted to 1s pattern {3}

Atom   0O    basis set group =>   1
Atom   1H    basis set group =>   2
Atom   2H    basis set group =>   2


           ************************************************************
           *        Program running with 2 parallel MPI-processes     *
           *              working on a common directory               *
           ************************************************************
------------------------------------------------------------------------------
                             ORCA STARTUP CALCULATIONS
------------------------------------------------------------------------------
------------------------------------------------------------------------------
                   ___                                                        
                  /   \      - P O W E R E D   B Y -                         
                 /     \                                                     
                 |  |  |   _    _      __       _____    __    __             
                 |  |  |  | |  | |    /  \     |  _  \  |  |  /  |          
                  \  \/   | |  | |   /    \    | | | |  |  | /  /          
                 / \  \   | |__| |  /  /\  \   | |_| |  |  |/  /          
                |  |  |   |  __  | /  /__\  \  |    /   |      \           
                |  |  |   | |  | | |   __   |  |    \   |  |\   \          
                \     /   | |  | | |  |  |  |  | |\  \  |  | \   \       
                 \___/    |_|  |_| |__|  |__|  |_| \__\ |__|  \__/        
                                                                              
                      - O R C A' S   B I G   F R I E N D -                    
                                      &                                       
                       - I N T E G R A L  F E E D E R -                       
                                                                              
 v1 FN, 2020, v2 2021, v3 2022-2024                                           
------------------------------------------------------------------------------


----------------------
SHARK INTEGRAL PACKAGE
----------------------

Number of atoms                             ...      3
Number of basis functions                   ...      7
Number of shells                            ...      5
Maximum angular momentum                    ...      1
Integral batch strategy                     ... SHARK/LIBINT Hybrid
RI-J (if used) integral strategy            ... SPLIT-RIJ (Revised 2003 algorithm where possible)
Printlevel                                  ...      1
Contraction scheme used                     ... SEGMENTED contraction
Prescreening option                         ... SCHWARTZ
   Thresh                                   ... 2.500e-11
   Tcut                                     ... 2.500e-12
   Tpresel                                  ... 2.500e-12 
Coulomb Range Separation                    ... NOT USED
Exchange Range Separation                   ... NOT USED
Multipole approximations                    ... NOT USED
Finite Nucleus Model                        ... NOT USED
CABS basis                                  ... NOT available
Auxiliary Coulomb fitting basis             ... NOT available
Auxiliary J/K fitting basis                 ... NOT available
Auxiliary Correlation fitting basis         ... NOT available
Auxiliary 'external' fitting basis          ... NOT available

Checking pre-screening integrals            ... done (  0.0 sec) Dimension = 5
   => SHARK Basis and OBASIS are compatible. Storing Pre-screening
Shell pair information
Shell pair cut-off parameter TPreSel        ...   2.5e-12
Total number of shell pairs                 ...        15
Shell pairs after pre-screening             ...        15
Total number of primitive shell pairs       ...       135
Primitive shell pairs kept                  ...       134
          la=0 lb=0:     10 shell pairs
          la=1 lb=0:      4 shell pairs
          la=1 lb=1:      1 shell pairs

Checking whether 4 symmetric matrices of dimension 7 fit in memory
:Max Core in MB      =   1000.00
 MB in use           =      0.76
 MB left             =    999.24
 MB needed           =      0.00
 Data fit in memory  = YES
Calculating Nuclear repulsion               ... done (  0.0 sec) ENN=      9.193913115104 Eh
Entering conventional section               ... 
Calculating 4-index integrals               ...     -> SHARK/Ints2Disk: Thresh =     2.500000e-11 TCut=    2.500000e-12 
    -> calling libint FockFlag=2 Lmax_loc=1
    ->Total LIBINT loop time =    0.001 sec
    -> L=0 0 0 0:     0.000 sec done=        55 (=100.0%) skipped=         0 
    -> L=1 0 0 0:     0.001 sec done=        40 (=100.0%) skipped=         0 
    -> L=1 0 1 0:     0.000 sec done=        10 (=100.0%) skipped=         0 
    -> L=1 1 0 0:     0.000 sec done=        10 (=100.0%) skipped=         0 
    -> L=1 1 1 0:     0.000 sec done=         4 (=100.0%) skipped=         0 
    -> L=1 1 1 1:     0.000 sec done=         1 (=100.0%) skipped=         0 
    ->Total SHARK integral loop time =    0.021 sec
    -> Total Integral generation matrix time =    0.140 sec
    -> Number of small integrals   =         0
    -> Number of medium integrals  =         0
    -> Number of large integrals   =       228
    -> Number of MB stored         =         0 MB

done (  0.2 sec)
Leaving conventional section

Diagonalization of the overlap matrix:
Smallest eigenvalue                        ... 3.232e-01
Time for diagonalization                   ...    0.000 sec
Threshold for overlap eigenvalues          ... 1.000e-07
Number of eigenvalues below threshold      ... 0
Time for construction of square roots      ...    0.027 sec
Total time needed                          ...    0.182 sec

-------------------
DFT GRID GENERATION
-------------------

General Integration Accuracy     IntAcc      ... 4.388
Radial Grid Type                 RadialGrid  ... OptM3 with GC (2021)
Angular Grid (max. ang.)         AngularGrid ... 4 (Lebedev-302)
Angular grid pruning method      GridPruning ... 4 (adaptive)
Weight generation scheme         WeightScheme... mBecke (2022)
Basis function cutoff            BFCut       ... 1.0000e-11
Integration weight cutoff        WCut        ... 1.0000e-14
Partially contracted basis set               ... off
Rotationally invariant grid construction     ... off
Angular grids for H and He will be reduced by one unit

Total number of grid points                  ...    12756
Total number of batches                      ...      201
Average number of points per batch           ...       63
Average number of grid points per atom       ...     4252
Grids setup in   0.9 sec
Initializing property integral containers    ... done (  0.4 sec)

SHARK setup successfully completed in   2.4 seconds

Maximum memory used throughout the entire STARTUP-calculation: 29.4 MB


           ************************************************************
           *        Program running with 2 parallel MPI-processes     *
           *              working on a common directory               *
           ************************************************************
-------------------------------------------------------------------------------
                                 ORCA GUESS
                   Start orbitals & Density for SCF / CASSCF
-------------------------------------------------------------------------------

------------
SCF SETTINGS
------------
Hamiltonian:
 Ab initio Hamiltonian  Method          .... Hartree-Fock(GTOs)


General Settings:
 Integral files         IntName         .... H2O
 Hartree-Fock type      HFTyp           .... RHF
 Total Charge           Charge          ....    0
 Multiplicity           Mult            ....    1
 Number of Electrons    NEL             ....   10
 Basis Dimension        Dim             ....    7
 Nuclear Repulsion      ENuc            ....      9.1939131151 Eh

Convergence Acceleration:
 AO-DIIS                CNVDIIS         .... on
   Start iteration      DIISMaxIt       ....    12
   Startup error        DIISStart       ....  0.200000
   # of expansion vecs  DIISMaxEq       ....     5
   Bias factor          DIISBfac        ....   1.050
   Max. coefficient     DIISMaxC        ....  10.000
 MO-DIIS                CNVKDIIS        .... off
 Trust-Rad. Augm. Hess. CNVTRAH         .... auto
   Auto Start mean grad. ratio tolernc. ....  1.125000
   Auto Start start iteration           ....    50
   Auto Start num. interpolation iter.  ....    10
   Max. Number of Micro iterations      ....    24
   Max. Number of Macro iterations      .... Maxiter - #DIIS iter
   Number of Davidson start vectors     ....     2
   Converg. threshold    (grad. norm)   ....   1.000e-05
   Grad. Scal. Fac. for Micro threshold ....   0.100
   Minimum threshold for Micro iter.    ....   1.000e-02
   NR start threshold (gradient norm)   ....   1.000e-04
   Initial trust radius                 ....   0.400
   Minimum AH scaling param. (alpha)    ....   1.000
   Maximum AH scaling param. (alpha)    .... 1000.000
   Quad. conv. algorithm                .... NR
   White noise on init. David. guess    .... on
   Maximum white noise                  ....   0.010
   Pseudo random numbers                .... off
   Inactive MOs                         .... canonical
   Orbital update algorithm             .... Taylor
   Preconditioner                       .... Diag
   Full preconditioner red. dimension   ....   250
 SOSCF                 CNVSOSCF           .... on
   Start iteration     SOSCFMaxIt         ....   150
   Startup grad/error  SOSCFStart         ....  0.003300
   Hessian update      SOSCFHessUp        .... L-BFGS
   Autom. constraints  SOSCFAutoConstrain .... off
 Level Shifting         CNVShift        .... on
   Level shift para.    LevelShift      ....    0.2500
   Turn off err/grad.   ShiftErr        ....    0.0010
 Zerner damping         CNVZerner       .... off
 Static damping         CNVDamp         .... on
   Fraction old density DampFac         ....    0.7000
   Max. Damping (<1)    DampMax         ....    0.9800
   Min. Damping (>=0)   DampMin         ....    0.0000
   Turn off err/grad.   DampErr         ....    0.1000

SCF Procedure:
 Maximum # iterations   MaxIter         ....   125
 SCF integral mode      SCFMode         .... Conventional
 Integral Threshold     Thresh          ....  2.500e-11 Eh
 Primitive CutOff       TCut            ....  2.500e-12 Eh
 Integral Buffer length BufferLength    .... 1048576
 Integral index format  IndFormat       ....     0
 Integral value format  ValFormat       ....     0
 Integral Storage       Thresh          ....  2.500e-11 Eh

Convergence Tolerance:
 Convergence Check Mode ConvCheckMode   .... Total+1el-Energy
 Convergence forced     ConvForced      .... 0
 Energy Change          TolE            ....  1.000e-08 Eh
 1-El. energy change                    ....  1.000e-05 Eh
 Orbital Gradient       TolG            ....  1.000e-05
 Orbital Rotation angle TolX            ....  1.000e-05
 DIIS Error             TolErr          ....  5.000e-07

--------------------------------
INITIAL GUESS: MINIMAL BASIS EHT
--------------------------------
The minimal basis has 7 functions
EHT matrix was diagonalized
Basis set overlap was calculated now projecting the orbitals
Using GuessMode=FMatrix for the initial guess
C*T matrix was formed
Effective Fockian was calculated
Effective Fockian was diagonalized
Initial density was built
                      ------------------
                      INITIAL GUESS DONE
                      ------------------
             **** ENERGY FILE WAS UPDATED (H2O.en.tmp) ****
Finished Guess after   0.9 sec
Maximum memory used throughout the entire GUESS-calculation: 2.1 MB


           ************************************************************
           *        Program running with 2 parallel MPI-processes     *
           *              working on a common directory               *
           ************************************************************

-------------------------------------------------------------------------------------------
                                      ORCA LEAN-SCF
                              memory conserving SCF solver
-------------------------------------------------------------------------------------------


 InCore treatment chosen for four center integrals:
   Memory dedicated               ...    1000 MB
   Memory needed                  ...      0 MB
   Number of tiny    integrals    ...       0
   Number of small   integrals    ...       0
   Number of regular integrals    ...     228

----------------------------------------D-I-I-S--------------------------------------------
Iteration    Energy (Eh)           Delta-E    RMSDP     MaxDP     DIISErr   Damp  Time(sec)
-------------------------------------------------------------------------------------------
    1    -75.4364201059723740     0.00e+00  3.55e-02  7.10e-02  1.32e-01  0.700   0.9
    2    -75.4530509158995812    -1.66e-02  3.26e-02  6.73e-02  1.06e-01  0.700   0.6
                               ***Turning on AO-DIIS***
    3    -75.4660087903908590    -1.30e-02  2.86e-02  6.13e-02  8.07e-02  0.700   0.5
    4    -75.4757887050275826    -9.78e-03  7.65e-02  1.66e-01  6.08e-02  0.000   0.6
    5    -75.5025428220887420    -2.68e-02  1.12e-02  2.54e-02  8.24e-03  0.000   0.6
    6    -75.5029205495557676    -3.78e-04  6.18e-03  1.30e-02  3.94e-03  0.000   0.5
                              *** Initializing SOSCF ***
---------------------------------------S-O-S-C-F--------------------------------------
Iteration    Energy (Eh)           Delta-E    RMSDP     MaxDP     MaxGrad    Time(sec)
--------------------------------------------------------------------------------------
    7    -75.5029988548930788    -7.83e-05  1.51e-03  3.37e-03  1.13e-03     0.6
    8    -75.5030036381424452    -4.78e-06  2.20e-04  5.29e-04  2.39e-04     0.4
    9    -75.5030038380628383    -2.00e-07  1.56e-04  3.42e-04  9.40e-05     0.4
   10    -75.5030038769957059    -3.89e-08  6.57e-06  1.75e-05  6.56e-06     0.4
   11    -75.5030038771156740    -1.20e-10  2.12e-06  6.38e-06  2.22e-06     0.4
                 **** Energy Check signals convergence ****

               *****************************************************
               *                     SUCCESS                       *
               *           SCF CONVERGED AFTER  11 CYCLES          *
               *****************************************************

             **** ENERGY FILE WAS UPDATED (H2O.en.tmp) ****

----------------
TOTAL SCF ENERGY
----------------

Total Energy       :        -75.50300387712468 Eh           -2054.54119 eV

Components:
Nuclear Repulsion  :          9.19391311510356 Eh             250.17909 eV
Electronic Energy  :        -84.69691699222825 Eh           -2304.72028 eV
One Electron Energy:       -122.83686537421121 Eh           -3342.56104 eV
Two Electron Energy:         38.13994838198296 Eh            1037.84076 eV

Virial components:
Potential Energy   :       -151.44362754937811 Eh           -4120.99061 eV
Kinetic Energy     :         75.94062367225342 Eh            2066.44943 eV
Virial Ratio       :          1.99423734262419

---------------
SCF CONVERGENCE
---------------

  Last Energy change         ...    1.1997e-10  Tolerance :   1.0000e-08
  Last MAX-Density change    ...    6.3759e-06  Tolerance :   1.0000e-07
  Last RMS-Density change    ...    2.1212e-06  Tolerance :   5.0000e-09
  Last DIIS Error            ...    1.1306e-03  Tolerance :   5.0000e-07
  Last Orbital Gradient      ...    2.2246e-06  Tolerance :   1.0000e-05
  Last Orbital Rotation      ...    1.5430e-06  Tolerance :   1.0000e-05


----------------
ORBITAL ENERGIES
----------------

  NO   OCC          E(Eh)            E(eV) 
   0   2.0000     -20.301926      -552.4435 
   1   2.0000      -1.315627       -35.8000 
   2   2.0000      -0.665693       -18.1144 
   3   2.0000      -0.524121       -14.2621 
   4   2.0000      -0.471117       -12.8197 
   5   0.0000       0.603179        16.4133 
   6   0.0000       0.695760        18.9326 
*Only the first 10 virtual orbitals were printed.

                    ********************************
                    * MULLIKEN POPULATION ANALYSIS *
                    ********************************

-----------------------
MULLIKEN ATOMIC CHARGES
-----------------------
   0 O :   -0.585925
   1 H :    0.292963
   2 H :    0.292963
Sum of atomic charges:   -0.0000000

--------------------------------
MULLIKEN REDUCED ORBITAL CHARGES
--------------------------------
  0 O s       :     3.802029  s :     3.802029
      pz      :     1.590392  p :     4.783896
      px      :     2.000000
      py      :     1.193504

  1 H s       :     0.707037  s :     0.707037

  2 H s       :     0.707037  s :     0.707037



                     *******************************
                     * LOEWDIN POPULATION ANALYSIS *
                     *******************************

----------------------
LOEWDIN ATOMIC CHARGES
----------------------
   0 O :   -0.426382
   1 H :    0.213191
   2 H :    0.213191

-------------------------------
LOEWDIN REDUCED ORBITAL CHARGES
-------------------------------
  0 O s       :     3.637943  s :     3.637943
      pz      :     1.587256  p :     4.788440
      px      :     2.000000
      py      :     1.201184

  1 H s       :     0.786809  s :     0.786809

  2 H s       :     0.786809  s :     0.786809



                      *****************************
                      * MAYER POPULATION ANALYSIS *
                      *****************************

  NA   - Mulliken gross atomic population
  ZA   - Total nuclear charge
  QA   - Mulliken gross atomic charge
  VA   - Mayer's total valence
  BVA  - Mayer's bonded valence
  FA   - Mayer's free valence

  ATOM       NA         ZA         QA         VA         BVA        FA
  0 O      8.5859     8.0000    -0.5859     1.8086     1.8086    -0.0000
  1 H      0.7070     1.0000     0.2930     0.9142     0.9142     0.0000
  2 H      0.7070     1.0000     0.2930     0.9142     0.9142    -0.0000

  Mayer bond orders larger than 0.100000
B(  0-O ,  1-H ) :   0.9043 B(  0-O ,  2-H ) :   0.9043 

-------
TIMINGS
-------

Total SCF time: 0 days 0 hours 0 min 7 sec 

Total time                  ....       7.377 sec
Sum of individual times     ....       6.066 sec  ( 82.2%)

SCF preparation             ....       0.812 sec  ( 11.0%)
Fock matrix formation       ....       1.221 sec  ( 16.5%)
  Startup                   ....       0.424 sec  ( 34.7% of F)
  Coulomb+Exchange Fock     ....       0.376 sec  ( 30.8% of F)
Diagonalization             ....       0.000 sec  (  0.0%)
Density matrix formation    ....       1.030 sec  ( 14.0%)
Total Energy calculation    ....       0.453 sec  (  6.1%)
Population analysis         ....       0.168 sec  (  2.3%)
Orbital Transformation      ....       0.166 sec  (  2.3%)
Orbital Orthonormalization  ....       0.000 sec  (  0.0%)
DIIS solution               ....       1.556 sec  ( 21.1%)
SOSCF solution              ....       0.660 sec  (  8.9%)
Finished LeanSCF after   7.6 sec

Maximum memory used throughout the entire LEANSCF-calculation: 51.0 MB


           ************************************************************
           *        Program running with 2 parallel MPI-processes     *
           *              working on a common directory               *
           ************************************************************

------------------------------------------------------------------------------
                         ORCA PROPERTY INTEGRAL CALCULATIONS
------------------------------------------------------------------------------

GBWName                                   ... H2O.gbw
Number of atoms                           ...      3
Number of basis functions                 ...      7
Max core memory                           ...   1000 MB

Dipole integrals                          ... YES
Quadrupole integrals                      ...  NO
Linear momentum integrals                 ...  NO
Angular momentum integrals                ...  NO
Higher moments length integrals           ...  NO
Higher moments velocity integrals         ...  NO
Kinetic energy integrals                  ...  NO
GIAO right hand sides                     ...  NO
GIAO dipole derivative integrals          ...  NO
SOC integrals                             ...  NO
EPR diamagnetic integrals (GIAO)          ...  NO
EPR gauge integrals                       ...  NO
Field gradient integrals                  ...  NO (   0 nuclei)
Spin-dipole/Fermi contact integrals       ...  NO (   0 nuclei)
Contact density integrals                 ...  NO (   0 nuclei)
Nucleus-orbit integrals                   ...  NO (   0 nuclei)
Geometric perturbations                   ...  NO (   3 nuclei)

Choice of electric origin   ... Center of mass
Position of electric origin ... (  0.0000,  0.0000,  0.0972) 
Choice of magnetic origin   ... GIAO
Position of magnetic origin ... (  0.0000,  0.0000,  0.0000) 

Calculating integrals                     ... Electric Dipole (Length)     done (  0.1 sec)

Property integrals calculated in   0.1 sec

Maximum memory used throughout the entire PROPINT-calculation: 2.2 MB


-------------------------------------------------------------------------------
                          DFT DISPERSION CORRECTION                            
                                                                               
                              DFTD3 V3.1  Rev 1                                
                          USING Becke-Johnson damping                          
-------------------------------------------------------------------------------
Hartree-Fock is recognized
Active option DFTDOPT                   ...         4   

molecular C6(AA) [au] = 44.530199 


            DFT-D V3
 parameters
 using HF/MINIX parameters
 s6 scaling factor         :     1.0000 
 a1 scaling factor         :     0.4171 
 s8 scaling factor         :     0.8777 
 a2 scaling factor         :     2.9149 
 ad hoc parameters k1-k3   :    16.0000     1.3333    -4.0000 

 Edisp/kcal,au: -1.660832831934  -0.002646705306 
 E6   /kcal   :  -1.012629099 
 E8   /kcal   :  -0.648203733 
 % E8         :  39.028836646 

-------------------------   ----------------
Dispersion correction           -0.002646705
-------------------------   ----------------

------------------   -----------------
gCP+bas correction        -0.006051379
------------------   -----------------
----------------------------   ----------------
Total correction to HF/MINIX       -0.008698085
----------------------------   ----------------


-------------------------   --------------------
FINAL SINGLE POINT ENERGY       -75.511701961831
-------------------------   --------------------



           ************************************************************
           *        Program running with 2 parallel MPI-processes     *
           *              working on a common directory               *
           ************************************************************
------------------------------------------------------------------------------
                         ORCA SCF GRADIENT CALCULATION
------------------------------------------------------------------------------

Nuc. rep. gradient        (SHARK) ... done (  0.0 sec)
HCore & Overlap gradient  (SHARK) ... done (  0.0 sec)
Two-electron gradient     (SHARK) ... done (  0.0 sec)
Dispersion correction             ... done (  0.1 sec)

-------------------
DISPERSION GRADIENT
-------------------

   1   O   :    0.000000000    0.000000000   -0.000001801
   2   H   :    0.000000000    0.000084134    0.000000900
   3   H   :    0.000000000   -0.000084134    0.000000900

Difference to translation invariance:
           :    0.0000000000    0.0000000000    0.0000000000

Difference to rotation invariance:
           :    0.0000000000    0.0000000000    0.0000000000

Norm of the Dispersion gradient    ...    0.0001190042
RMS gradient                       ...    0.0000396681
MAX gradient                       ...    0.0000841343
gCP correction                   ... done

------------------
CARTESIAN GRADIENT
------------------

   1   O   :    0.000000000    0.000000000   -0.023305293
   2   H   :   -0.000000000   -0.021185442    0.011652647
   3   H   :   -0.000000000    0.021185442    0.011652647

Difference to translation invariance:
           :   -0.0000000000    0.0000000000    0.0000000000

Difference to rotation invariance:
           :    0.0000000000    0.0000000000   -0.0000000000

Norm of the Cartesian gradient     ...    0.0413805622
RMS gradient                       ...    0.0137935207
MAX gradient                       ...    0.0233052930

-------
TIMINGS
-------

Total SCF gradient time     ....        0.153 sec

Densities                   ....       0.000 sec  (  0.0%)
One electron gradient       ....       0.004 sec  (  2.7%)
Two electron gradient       ....       0.005 sec  (  3.1%)

Maximum memory used throughout the entire SCFGRAD-calculation: 22.8 MB
------------------------------------------------------------------------------
                         ORCA GEOMETRY RELAXATION STEP
------------------------------------------------------------------------------

Reading the OPT-File                    .... done
Getting information on internals        .... done
Copying old internal coords+grads       .... done
Making the new internal coordinates     .... (2022 redundants) done
Validating the new internal coordinates .... (2022 redundants) done
Calculating the B-matrix                .... done
Calculating the G,G- and P matrices     .... done
Transforming gradient to internals      .... done
Projecting the internal gradient        .... done
Number of atoms                         ....   3
Number of internal coordinates          ....   3
Current Energy                          ....   -75.511701962 Eh
Current gradient norm                   ....     0.041380562 Eh/bohr
Maximum allowed component of the step   ....  0.300
Current trust radius                    ....  0.300
Evaluating the initial hessian          ....  (Almloef) done
Projecting the Hessian                  .... done
Forming the augmented Hessian           .... done
Diagonalizing the augmented Hessian     .... done
Last element of RFO vector              ....  0.997738706
Lowest eigenvalues of augmented Hessian:
 -0.002305229  0.323017493  0.525117302
Length of the computed step             ....  0.067364492
The final length of the internal step   ....  0.067364492
Converting the step to Cartesian space:
 Initial RMS(Int)=    0.0388929077
Transforming coordinates:
 Iter   0:  RMS(Cart)=    0.0226017993 RMS(Int)=    0.0388773754
done
Storing new coordinates                 .... done

                                .--------------------.
          ----------------------|Geometry convergence|-------------------------
          Item                value                   Tolerance       Converged
          ---------------------------------------------------------------------
          RMS gradient        0.0198926139            0.0001000000      NO
          MAX gradient        0.0238854691            0.0003000000      NO
          RMS step            0.0388929077            0.0020000000      NO
          MAX step            0.0452871611            0.0040000000      NO
          -------------------------------------------------------------------------
          ........................................................
          Max(Bonds)      0.0240      Max(Angles)    1.20
          Max(Dihed)        0.00      Max(Improp)    0.00
          ---------------------------------------------------------------------

The optimization has not yet converged - more geometry cycles are needed


    ---------------------------------------------------------------------------
                         Redundant Internal Coordinates
                            (Angstroem and degrees)

        Definition                    Value    dE/dq     Step     New-Value
    ----------------------------------------------------------------------------
     1. B(H   1,O   0)                0.9573 -0.023885  0.0240    0.9813   
     2. B(H   2,O   0)                0.9573 -0.023885  0.0240    0.9813   
     3. A(H   1,O   0,H   2)          104.51 -0.006791    1.20    105.71   
    ----------------------------------------------------------------------------

Geometry step timings:
Preparation and reading OPT file:      0.003 s ( 5.254 %)
Internal coordinates            :      0.003 s ( 5.256 %)
B/P matrices and projection     :      0.003 s ( 5.667 %)
Hessian update/contruction      :      0.014 s (28.247 %)
Making the step                 :      0.004 s ( 8.186 %)
Converting the step to Cartesian:      0.002 s ( 3.694 %)
Storing new data                :      0.006 s (12.060 %)
Checking convergence            :      0.003 s ( 7.032 %)
Final printing                  :      0.012 s (24.583 %)
Total time                      :      0.048 s

Time for energy+gradient        :     14.144 s
Time for complete geometry iter :     14.915 s

         *************************************************************
         *                GEOMETRY OPTIMIZATION CYCLE   2            *
         *************************************************************
---------------------------------
CARTESIAN COORDINATES (ANGSTROEM)
---------------------------------
  O      0.000000    0.000000    0.121357
  H      0.000000    0.782180   -0.471178
  H      0.000000   -0.782180   -0.471178

----------------------------
CARTESIAN COORDINATES (A.U.)
----------------------------
  NO LB      ZA    FRAG     MASS         X           Y           Z
   0 O     8.0000    0    15.999    0.000000    0.000000    0.229331
   1 H     1.0000    0     1.008    0.000000    1.478106   -0.890398
   2 H     1.0000    0     1.008    0.000000   -1.478106   -0.890398

--------------------------------
INTERNAL COORDINATES (ANGSTROEM)
--------------------------------
 O      0   0   0     0.000000000000     0.00000000     0.00000000
 H      1   0   0     0.981276273720     0.00000000     0.00000000
 H      1   2   0     0.981276273720   105.70903234     0.00000000

---------------------------
INTERNAL COORDINATES (A.U.)
---------------------------
 O      0   0   0     0.000000000000     0.00000000     0.00000000
 H      1   0   0     1.854343419046     0.00000000     0.00000000
 H      1   2   0     1.854343419046   105.70903234     0.00000000



           ************************************************************
           *        Program running with 2 parallel MPI-processes     *
           *              working on a common directory               *
           ************************************************************
------------------------------------------------------------------------------
                   ___                                                        
                  /   \      - P O W E R E D   B Y -                         
                 /     \                                                     
                 |  |  |   _    _      __       _____    __    __             
                 |  |  |  | |  | |    /  \     |  _  \  |  |  /  |          
                  \  \/   | |  | |   /    \    | | | |  |  | /  /          
                 / \  \   | |__| |  /  /\  \   | |_| |  |  |/  /          
                |  |  |   |  __  | /  /__\  \  |    /   |      \           
                |  |  |   | |  | | |   __   |  |    \   |  |\   \          
                \     /   | |  | | |  |  |  |  | |\  \  |  | \   \       
                 \___/    |_|  |_| |__|  |__|  |_| \__\ |__|  \__/        
                                                                              
                      - O R C A' S   B I G   F R I E N D -                    
                                      &                                       
                       - I N T E G R A L  F E E D E R -                       
                                                                              
 v1 FN, 2020, v2 2021, v3 2022-2024                                           
------------------------------------------------------------------------------


----------------------
SHARK INTEGRAL PACKAGE
----------------------

Number of atoms                             ...      3
Number of basis functions                   ...      7
Number of shells                            ...      5
Maximum angular momentum                    ...      1
Integral batch strategy                     ... SHARK/LIBINT Hybrid
RI-J (if used) integral strategy            ... SPLIT-RIJ (Revised 2003 algorithm where possible)
Printlevel                                  ...      1
Contraction scheme used                     ... SEGMENTED contraction
Prescreening option                         ... SCHWARTZ
   Thresh                                   ... 2.500e-11
   Tcut                                     ... 2.500e-12
   Tpresel                                  ... 2.500e-12 
Coulomb Range Separation                    ... NOT USED
Exchange Range Separation                   ... NOT USED
Multipole approximations                    ... NOT USED
Finite Nucleus Model                        ... NOT USED
CABS basis                                  ... NOT available
Auxiliary Coulomb fitting basis             ... NOT available
Auxiliary J/K fitting basis                 ... NOT available
Auxiliary Correlation fitting basis         ... NOT available
Auxiliary 'external' fitting basis          ... NOT available

Checking pre-screening integrals            ... done (  0.0 sec) Dimension = 5
   => SHARK Basis and OBASIS are compatible. Storing Pre-screening
Shell pair information
Shell pair cut-off parameter TPreSel        ...   2.5e-12
Total number of shell pairs                 ...        15
Shell pairs after pre-screening             ...        15
Total number of primitive shell pairs       ...       135
Primitive shell pairs kept                  ...       134
          la=0 lb=0:     10 shell pairs
          la=1 lb=0:      4 shell pairs
          la=1 lb=1:      1 shell pairs

Checking whether 4 symmetric matrices of dimension 7 fit in memory
:Max Core in MB      =   1000.00
 MB in use           =      0.77
 MB left             =    999.23
 MB needed           =      0.00
 Data fit in memory  = YES
Calculating Nuclear repulsion               ... done (  0.0 sec) ENN=      8.966661676427 Eh
Entering conventional section               ... 
Calculating 4-index integrals               ...     -> SHARK/Ints2Disk: Thresh =     2.500000e-11 TCut=    2.500000e-12 
    -> calling libint FockFlag=2 Lmax_loc=1
    ->Total LIBINT loop time =    0.000 sec
    -> L=0 0 0 0:     0.000 sec done=        55 (=100.0%) skipped=         0 
    -> L=1 0 0 0:     0.000 sec done=        40 (=100.0%) skipped=         0 
    -> L=1 0 1 0:     0.000 sec done=        10 (=100.0%) skipped=         0 
    -> L=1 1 0 0:     0.000 sec done=        10 (=100.0%) skipped=         0 
    -> L=1 1 1 0:     0.000 sec done=         4 (=100.0%) skipped=         0 
    -> L=1 1 1 1:     0.000 sec done=         1 (=100.0%) skipped=         0 
    ->Total SHARK integral loop time =    0.003 sec
    -> Total Integral generation matrix time =    0.080 sec
    -> Number of small integrals   =         0
    -> Number of medium integrals  =         0
    -> Number of large integrals   =       228
    -> Number of MB stored         =         0 MB

done (  0.1 sec)
Leaving conventional section

Diagonalization of the overlap matrix:
Smallest eigenvalue                        ... 3.388e-01
Time for diagonalization                   ...    0.000 sec
Threshold for overlap eigenvalues          ... 1.000e-07
Number of eigenvalues below threshold      ... 0
Time for construction of square roots      ...    0.018 sec
Total time needed                          ...    0.079 sec

-------------------
DFT GRID GENERATION
-------------------

General Integration Accuracy     IntAcc      ... 4.388
Radial Grid Type                 RadialGrid  ... OptM3 with GC (2021)
Angular Grid (max. ang.)         AngularGrid ... 4 (Lebedev-302)
Angular grid pruning method      GridPruning ... 4 (adaptive)
Weight generation scheme         WeightScheme... mBecke (2022)
Basis function cutoff            BFCut       ... 1.0000e-11
Integration weight cutoff        WCut        ... 1.0000e-14
Partially contracted basis set               ... off
Rotationally invariant grid construction     ... off
Angular grids for H and He will be reduced by one unit

Total number of grid points                  ...    12764
Total number of batches                      ...      201
Average number of points per batch           ...       63
Average number of grid points per atom       ...     4255
Grids setup in   0.5 sec
Initializing property integral containers    ... done (  0.2 sec)

SHARK setup successfully completed in   1.1 seconds

Maximum memory used throughout the entire STARTUP-calculation: 29.4 MB


           ************************************************************
           *        Program running with 2 parallel MPI-processes     *
           *              working on a common directory               *
           ************************************************************
Occupation numbers will be reassigned to an Aufbau configuration
             **** ENERGY FILE WAS UPDATED (H2O.en.tmp) ****
Finished Guess after   0.5 sec
Maximum memory used throughout the entire GUESS-calculation: 2.1 MB


           ************************************************************
           *        Program running with 2 parallel MPI-processes     *
           *              working on a common directory               *
           ************************************************************

 InCore treatment chosen for four center integrals:
   Memory dedicated               ...    1000 MB
   Memory needed                  ...      0 MB
   Number of tiny    integrals    ...       0
   Number of small   integrals    ...       0
   Number of regular integrals    ...     228

----------------------------------------D-I-I-S--------------------------------------------
Iteration    Energy (Eh)           Delta-E    RMSDP     MaxDP     DIISErr   Damp  Time(sec)
-------------------------------------------------------------------------------------------
    1    -75.5054089534459081     0.00e+00  9.60e-04  2.18e-03  1.20e-02  0.700   0.4
    2    -75.5054266191672099    -1.77e-05  8.72e-04  2.02e-03  8.57e-03  0.700   0.6
                               ***Turning on AO-DIIS***
    3    -75.5054398720799327    -1.33e-05  7.57e-04  1.81e-03  6.12e-03  0.700   0.4
    4    -75.5054496452644344    -9.77e-06  2.03e-03  4.85e-03  4.30e-03  0.000   0.5
                              *** Initializing SOSCF ***
---------------------------------------S-O-S-C-F--------------------------------------
Iteration    Energy (Eh)           Delta-E    RMSDP     MaxDP     MaxGrad    Time(sec)
--------------------------------------------------------------------------------------
    5    -75.5054754639540988    -2.58e-05  3.02e-04  6.38e-04  2.89e-04     0.6
    6    -75.5054758308772307    -3.67e-07  1.80e-04  3.94e-04  1.85e-04     0.6
    7    -75.5054759375703242    -1.07e-07  1.34e-04  2.87e-04  7.71e-05     0.4
    8    -75.5054759614713049    -2.39e-08  7.89e-07  2.31e-06  1.56e-06     0.7
                  *** Gradient check signals convergence ***

               *****************************************************
               *                     SUCCESS                       *
               *           SCF CONVERGED AFTER   8 CYCLES          *
               *****************************************************

             **** ENERGY FILE WAS UPDATED (H2O.en.tmp) ****

----------------
TOTAL SCF ENERGY
----------------

Total Energy       :        -75.50547596147449 Eh           -2054.60846 eV

Components:
Nuclear Repulsion  :          8.96666167642689 Eh             243.99527 eV
Electronic Energy  :        -84.47213763790138 Eh           -2298.60372 eV
One Electron Energy:       -122.48574730360224 Eh           -3333.00663 eV
Two Electron Energy:         38.01360966570086 Eh            1034.40291 eV

Virial components:
Potential Energy   :       -151.41817561016995 Eh           -4120.29803 eV
Kinetic Energy     :         75.91269964869545 Eh            2065.68958 eV
Virial Ratio       :          1.99463563159912

---------------
SCF CONVERGENCE
---------------

  Last Energy change         ...    2.3901e-08  Tolerance :   1.0000e-08
  Last MAX-Density change    ...    2.3090e-06  Tolerance :   1.0000e-07
  Last RMS-Density change    ...    7.8919e-07  Tolerance :   5.0000e-09
  Last DIIS Error            ...    2.8905e-04  Tolerance :   5.0000e-07
  Last Orbital Gradient      ...    1.5619e-06  Tolerance :   1.0000e-05
  Last Orbital Rotation      ...    8.3249e-07  Tolerance :   1.0000e-05


Total SCF time: 0 days 0 hours 0 min 5 sec 
Finished LeanSCF after   5.4 sec

Maximum memory used throughout the entire LEANSCF-calculation: 51.1 MB


           ************************************************************
           *        Program running with 2 parallel MPI-processes     *
           *              working on a common directory               *
           ************************************************************

------------------------------------------------------------------------------
                         ORCA PROPERTY INTEGRAL CALCULATIONS
------------------------------------------------------------------------------

GBWName                                   ... H2O.gbw
Number of atoms                           ...      3
Number of basis functions                 ...      7
Max core memory                           ...   1000 MB

Dipole integrals                          ... YES
Quadrupole integrals                      ...  NO
Linear momentum integrals                 ...  NO
Angular momentum integrals                ...  NO
Higher moments length integrals           ...  NO
Higher moments velocity integrals         ...  NO
Kinetic energy integrals                  ...  NO
GIAO right hand sides                     ...  NO
GIAO dipole derivative integrals          ...  NO
SOC integrals                             ...  NO
EPR diamagnetic integrals (GIAO)          ...  NO
EPR gauge integrals                       ...  NO
Field gradient integrals                  ...  NO (   0 nuclei)
Spin-dipole/Fermi contact integrals       ...  NO (   0 nuclei)
Contact density integrals                 ...  NO (   0 nuclei)
Nucleus-orbit integrals                   ...  NO (   0 nuclei)
Geometric perturbations                   ...  NO (   3 nuclei)

Choice of electric origin   ... Center of mass
Position of electric origin ... (  0.0000,  0.0000,  0.1040) 
Choice of magnetic origin   ... GIAO
Position of magnetic origin ... (  0.0000,  0.0000,  0.0000) 

Calculating integrals                     ... Electric Dipole (Length)     done (  0.1 sec)

Property integrals calculated in   0.1 sec

Maximum memory used throughout the entire PROPINT-calculation: 2.2 MB


-------------------------------------------------------------------------------
                          DFT DISPERSION CORRECTION                            
                                                                               
                              DFTD3 V3.1  Rev 1                                
                          USING Becke-Johnson damping                          
-------------------------------------------------------------------------------
-------------------------   ----------------
Dispersion correction           -0.002638262
-------------------------   ----------------

------------------   -----------------
gCP+bas correction        -0.004397368
------------------   -----------------
----------------------------   ----------------
Total correction to HF/MINIX       -0.007035629
----------------------------   ----------------


-------------------------   --------------------
FINAL SINGLE POINT ENERGY       -75.512511590787
-------------------------   --------------------



           ************************************************************
           *        Program running with 2 parallel MPI-processes     *
           *              working on a common directory               *
           ************************************************************
------------------------------------------------------------------------------
                         ORCA SCF GRADIENT CALCULATION
------------------------------------------------------------------------------

Nuc. rep. gradient        (SHARK) ... done (  0.0 sec)
HCore & Overlap gradient  (SHARK) ... done (  0.0 sec)
Two-electron gradient     (SHARK) ... done (  0.0 sec)
Dispersion correction             ... done (  0.1 sec)

-------------------
DISPERSION GRADIENT
-------------------

   1   O   :    0.000000000   -0.000000000   -0.000008149
   2   H   :    0.000000000    0.000094348    0.000004075
   3   H   :    0.000000000   -0.000094348    0.000004075

Difference to translation invariance:
           :    0.0000000000   -0.0000000000    0.0000000000

Difference to rotation invariance:
           :   -0.0000000000    0.0000000000    0.0000000000

Norm of the Dispersion gradient    ...    0.0001338012
RMS gradient                       ...    0.0000446004
MAX gradient                       ...    0.0000943481
gCP correction                   ... done

------------------
CARTESIAN GRADIENT
------------------

   1   O   :   -0.000000000    0.000000000    0.006026543
   2   H   :    0.000000000    0.005693308   -0.003013271
   3   H   :    0.000000000   -0.005693308   -0.003013271

Difference to translation invariance:
           :    0.0000000000   -0.0000000000   -0.0000000000

Difference to rotation invariance:
           :   -0.0000000000   -0.0000000000   -0.0000000000

Norm of the Cartesian gradient     ...    0.0109227442
RMS gradient                       ...    0.0036409147
MAX gradient                       ...    0.0060265428

-------
TIMINGS
-------

Total SCF gradient time     ....        0.154 sec

Densities                   ....       0.000 sec  (  0.0%)
One electron gradient       ....       0.004 sec  (  2.7%)
Two electron gradient       ....       0.004 sec  (  2.9%)

Maximum memory used throughout the entire SCFGRAD-calculation: 22.8 MB
------------------------------------------------------------------------------
                         ORCA GEOMETRY RELAXATION STEP
------------------------------------------------------------------------------

Reading the OPT-File                    .... done
Getting information on internals        .... done
Copying old internal coords+grads       .... done
Making the new internal coordinates     .... (2022 redundants) done
Validating the new internal coordinates .... (2022 redundants) done
Calculating the B-matrix                .... done
Calculating the G,G- and P matrices     .... done
Transforming gradient to internals      .... done
Projecting the internal gradient        .... done
Number of atoms                         ....   3
Number of internal coordinates          ....   3
Current Energy                          ....   -75.512511591 Eh
Current gradient norm                   ....     0.010922744 Eh/bohr
Maximum allowed component of the step   ....  0.300
Current trust radius                    ....  0.300
Updating the Hessian (BFGS)             .... done
Forming the augmented Hessian           .... done
Diagonalizing the augmented Hessian     .... done
Last element of RFO vector              ....  0.999898709
Lowest eigenvalues of augmented Hessian:
 -0.000129879  0.326562647  0.525117302
Length of the computed step             ....  0.014234189
The final length of the internal step   ....  0.014234189
Converting the step to Cartesian space:
 Initial RMS(Int)=    0.0082181130
Transforming coordinates:
 Iter   0:  RMS(Cart)=    0.0048443375 RMS(Int)=    0.0082187618
done
Storing new coordinates                 .... done
The predicted energy change is          ....    -0.000064953
Previously predicted energy change      ....    -0.001157845
Actually observed energy change         ....    -0.000809629
Ratio of predicted to observed change   ....     0.699255017
New trust radius                        ....     0.300000000

                                .--------------------.
          ----------------------|Geometry convergence|-------------------------
          Item                value                   Tolerance       Converged
          ---------------------------------------------------------------------
          Energy change      -0.0008096290            0.0000050000      NO
          RMS gradient        0.0053082023            0.0001000000      NO
          MAX gradient        0.0063577000            0.0003000000      NO
          RMS step            0.0082181130            0.0020000000      NO
          MAX step            0.0095099781            0.0040000000      NO
          -------------------------------------------------------------------------
          ........................................................
          Max(Bonds)      0.0050      Max(Angles)    0.27
          Max(Dihed)        0.00      Max(Improp)    0.00
          ---------------------------------------------------------------------

The optimization has not yet converged - more geometry cycles are needed


    ---------------------------------------------------------------------------
                         Redundant Internal Coordinates
                            (Angstroem and degrees)

        Definition                    Value    dE/dq     Step     New-Value
    ----------------------------------------------------------------------------
     1. B(H   1,O   0)                0.9813  0.006358 -0.0050    0.9762   
     2. B(H   2,O   0)                0.9813  0.006358 -0.0050    0.9762   
     3. A(H   1,O   0,H   2)          105.71  0.001921   -0.27    105.44   
    ----------------------------------------------------------------------------

Geometry step timings:
Preparation and reading OPT file:      0.013 s (21.531 %)
Internal coordinates            :      0.003 s ( 4.641 %)
B/P matrices and projection     :      0.004 s ( 6.464 %)
Hessian update/contruction      :      0.019 s (30.500 %)
Making the step                 :      0.003 s ( 5.252 %)
Converting the step to Cartesian:      0.002 s ( 2.601 %)
Storing new data                :      0.004 s ( 6.014 %)
Checking convergence            :      0.006 s ( 9.183 %)
Final printing                  :      0.008 s (13.803 %)
Total time                      :      0.061 s

Time for energy+gradient        :      9.801 s
Time for complete geometry iter :     10.686 s

         *************************************************************
         *                GEOMETRY OPTIMIZATION CYCLE   3            *
         *************************************************************
---------------------------------
CARTESIAN COORDINATES (ANGSTROEM)
---------------------------------
  O      0.000000    0.000000    0.120539
  H      0.000000    0.776792   -0.470769
  H      0.000000   -0.776792   -0.470769

----------------------------
CARTESIAN COORDINATES (A.U.)
----------------------------
  NO LB      ZA    FRAG     MASS         X           Y           Z
   0 O     8.0000    0    15.999    0.000000    0.000000    0.227785
   1 H     1.0000    0     1.008    0.000000    1.467925   -0.889625
   2 H     1.0000    0     1.008    0.000000   -1.467925   -0.889625

--------------------------------
INTERNAL COORDINATES (ANGSTROEM)
--------------------------------
 O      0   0   0     0.000000000000     0.00000000     0.00000000
 H      1   0   0     0.976243810192     0.00000000     0.00000000
 H      1   2   0     0.976243810192   105.44192842     0.00000000

---------------------------
INTERNAL COORDINATES (A.U.)
---------------------------
 O      0   0   0     0.000000000000     0.00000000     0.00000000
 H      1   0   0     1.844833441198     0.00000000     0.00000000
 H      1   2   0     1.844833441198   105.44192842     0.00000000



           ************************************************************
           *        Program running with 2 parallel MPI-processes     *
           *              working on a common directory               *
           ************************************************************
------------------------------------------------------------------------------
                   ___                                                        
                  /   \      - P O W E R E D   B Y -                         
                 /     \                                                     
                 |  |  |   _    _      __       _____    __    __             
                 |  |  |  | |  | |    /  \     |  _  \  |  |  /  |          
                  \  \/   | |  | |   /    \    | | | |  |  | /  /          
                 / \  \   | |__| |  /  /\  \   | |_| |  |  |/  /          
                |  |  |   |  __  | /  /__\  \  |    /   |      \           
                |  |  |   | |  | | |   __   |  |    \   |  |\   \          
                \     /   | |  | | |  |  |  |  | |\  \  |  | \   \       
                 \___/    |_|  |_| |__|  |__|  |_| \__\ |__|  \__/        
                                                                              
                      - O R C A' S   B I G   F R I E N D -                    
                                      &                                       
                       - I N T E G R A L  F E E D E R -                       
                                                                              
 v1 FN, 2020, v2 2021, v3 2022-2024                                           
------------------------------------------------------------------------------


----------------------
SHARK INTEGRAL PACKAGE
----------------------

Number of atoms                             ...      3
Number of basis functions                   ...      7
Number of shells                            ...      5
Maximum angular momentum                    ...      1
Integral batch strategy                     ... SHARK/LIBINT Hybrid
RI-J (if used) integral strategy            ... SPLIT-RIJ (Revised 2003 algorithm where possible)
Printlevel                                  ...      1
Contraction scheme used                     ... SEGMENTED contraction
Prescreening option                         ... SCHWARTZ
   Thresh                                   ... 2.500e-11
   Tcut                                     ... 2.500e-12
   Tpresel                                  ... 2.500e-12 
Coulomb Range Separation                    ... NOT USED
Exchange Range Separation                   ... NOT USED
Multipole approximations                    ... NOT USED
Finite Nucleus Model                        ... NOT USED
CABS basis                                  ... NOT available
Auxiliary Coulomb fitting basis             ... NOT available
Auxiliary J/K fitting basis                 ... NOT available
Auxiliary Correlation fitting basis         ... NOT available
Auxiliary 'external' fitting basis          ... NOT available

Checking pre-screening integrals            ... done (  0.0 sec) Dimension = 5
   => SHARK Basis and OBASIS are compatible. Storing Pre-screening
Shell pair information
Shell pair cut-off parameter TPreSel        ...   2.5e-12
Total number of shell pairs                 ...        15
Shell pairs after pre-screening             ...        15
Total number of primitive shell pairs       ...       135
Primitive shell pairs kept                  ...       134
          la=0 lb=0:     10 shell pairs
          la=1 lb=0:      4 shell pairs
          la=1 lb=1:      1 shell pairs

Checking whether 4 symmetric matrices of dimension 7 fit in memory
:Max Core in MB      =   1000.00
 MB in use           =      0.77
 MB left             =    999.23
 MB needed           =      0.00
 Data fit in memory  = YES
Calculating Nuclear repulsion               ... done (  0.0 sec) ENN=      9.013486520663 Eh
Entering conventional section               ... 
Calculating 4-index integrals               ...     -> SHARK/Ints2Disk: Thresh =     2.500000e-11 TCut=    2.500000e-12 
    -> calling libint FockFlag=2 Lmax_loc=1
    ->Total LIBINT loop time =    0.000 sec
    -> L=0 0 0 0:     0.000 sec done=        55 (=100.0%) skipped=         0 
    -> L=1 0 0 0:     0.000 sec done=        40 (=100.0%) skipped=         0 
    -> L=1 0 1 0:     0.000 sec done=        10 (=100.0%) skipped=         0 
    -> L=1 1 0 0:     0.000 sec done=        10 (=100.0%) skipped=         0 
    -> L=1 1 1 0:     0.000 sec done=         4 (=100.0%) skipped=         0 
    -> L=1 1 1 1:     0.000 sec done=         1 (=100.0%) skipped=         0 
    ->Total SHARK integral loop time =    0.001 sec
    -> Total Integral generation matrix time =    0.083 sec
    -> Number of small integrals   =         0
    -> Number of medium integrals  =         0
    -> Number of large integrals   =       228
    -> Number of MB stored         =         0 MB

done (  0.1 sec)
Leaving conventional section

Diagonalization of the overlap matrix:
Smallest eigenvalue                        ... 3.355e-01
Time for diagonalization                   ...    0.000 sec
Threshold for overlap eigenvalues          ... 1.000e-07
Number of eigenvalues below threshold      ... 0
Time for construction of square roots      ...    0.009 sec
Total time needed                          ...    0.068 sec

-------------------
DFT GRID GENERATION
-------------------

General Integration Accuracy     IntAcc      ... 4.388
Radial Grid Type                 RadialGrid  ... OptM3 with GC (2021)
Angular Grid (max. ang.)         AngularGrid ... 4 (Lebedev-302)
Angular grid pruning method      GridPruning ... 4 (adaptive)
Weight generation scheme         WeightScheme... mBecke (2022)
Basis function cutoff            BFCut       ... 1.0000e-11
Integration weight cutoff        WCut        ... 1.0000e-14
Partially contracted basis set               ... off
Rotationally invariant grid construction     ... off
Angular grids for H and He will be reduced by one unit

Total number of grid points                  ...    12760
Total number of batches                      ...      201
Average number of points per batch           ...       63
Average number of grid points per atom       ...     4253
Grids setup in   0.8 sec
Initializing property integral containers    ... done (  0.3 sec)

SHARK setup successfully completed in   2.0 seconds

Maximum memory used throughout the entire STARTUP-calculation: 29.4 MB


           ************************************************************
           *        Program running with 2 parallel MPI-processes     *
           *              working on a common directory               *
           ************************************************************
Occupation numbers will be reassigned to an Aufbau configuration
             **** ENERGY FILE WAS UPDATED (H2O.en.tmp) ****
Finished Guess after   0.9 sec
Maximum memory used throughout the entire GUESS-calculation: 2.1 MB


           ************************************************************
           *        Program running with 2 parallel MPI-processes     *
           *              working on a common directory               *
           ************************************************************

 InCore treatment chosen for four center integrals:
   Memory dedicated               ...    1000 MB
   Memory needed                  ...      0 MB
   Number of tiny    integrals    ...       0
   Number of small   integrals    ...       0
   Number of regular integrals    ...     228

----------------------------------------D-I-I-S--------------------------------------------
Iteration    Energy (Eh)           Delta-E    RMSDP     MaxDP     DIISErr   Damp  Time(sec)
-------------------------------------------------------------------------------------------
                              *** Initializing SOSCF ***
---------------------------------------S-O-S-C-F--------------------------------------
Iteration    Energy (Eh)           Delta-E    RMSDP     MaxDP     MaxGrad    Time(sec)
--------------------------------------------------------------------------------------
    1    -75.5052103073758474     0.00e+00  6.53e-04  1.46e-03  1.48e-04     0.8
    2    -75.5052128147476367    -2.51e-06  2.67e-04  6.01e-04  2.83e-04     0.4
    3    -75.5052130246990885    -2.10e-07  1.81e-04  3.76e-04  1.02e-04     0.5
    4    -75.5052130670333668    -4.23e-08  3.98e-06  7.75e-06  1.25e-05     0.7
    5    -75.5052130671323312    -9.90e-11  1.50e-06  3.44e-06  1.58e-06     0.7
                 **** Energy Check signals convergence ****

               *****************************************************
               *                     SUCCESS                       *
               *           SCF CONVERGED AFTER   5 CYCLES          *
               *****************************************************

             **** ENERGY FILE WAS UPDATED (H2O.en.tmp) ****

----------------
TOTAL SCF ENERGY
----------------

Total Energy       :        -75.50521306713881 Eh           -2054.60130 eV

Components:
Nuclear Repulsion  :          9.01348652066280 Eh             245.26944 eV
[...]
Thermal rotational correction    ...      0.00190008 Eh       1.19 kcal/mol
Thermal translational correction ...      0.00190008 Eh       1.19 kcal/mol
-----------------------------------------------------------------------
Total thermal energy                    -75.48513465 Eh


Summary of corrections to the electronic energy:
(perhaps to be used in another calculation)
Total thermal correction                  0.00380907 Eh       2.39 kcal/mol
Non-thermal (ZPE) correction              0.02363698 Eh      14.83 kcal/mol
-----------------------------------------------------------------------
Total correction                          0.02744604 Eh      17.22 kcal/mol


--------
ENTHALPY
--------

The enthalpy is H = U + kB*T
                kB is Boltzmann's constant
Total thermal energy              ...    -75.48513465 Eh 
Thermal Enthalpy correction       ...      0.00126676 Eh       0.79 kcal/mol
-----------------------------------------------------------------------
Total Enthalpy                    ...    -75.48386789 Eh


Note: Rotational entropy computed according to Herzberg 
Infrared and Raman Spectra, Chapter V,1, Van Nostrand Reinhold, 1945 
Point Group:  C2v, Symmetry Number:   2  
Rotational constants in cm-1:    26.941152    13.867947     9.155274 

Vibrational entropy computed according to the QRRHO of S. Grimme
Chem.Eur.J. 2012 18 9955 using a reference frequency of 100.0 cm-1


-------
ENTROPY
-------

The entropy contributions are T*S = T*(S(el)+S(vib)+S(rot)+S(trans))
     S(el)   - electronic entropy
     S(vib)  - vibrational entropy
     S(rot)  - rotational entropy
     S(trans)- translational entropy
The entropies will be listed as multiplied by the temperature to get
units of energy

Electronic entropy                ...      0.00000000 Eh      0.00 kcal/mol
Vibrational entropy               ...      0.00001020 Eh      0.01 kcal/mol
Rotational entropy                ...      0.00728611 Eh      4.57 kcal/mol
Translational entropy             ...      0.02299173 Eh     14.43 kcal/mol
-----------------------------------------------------------------------
Final entropy term                ...      0.03028804 Eh     19.01 kcal/mol

In case the symmetry of your molecule has not been determined correctly
or in case you have a reason to use a different symmetry number we print 
out the resulting rotational entropy values for sn=1,12:

 non-linear molecules -----------------------------------
|  sn= 1 | S(rot)=       0.00816413 Eh      5.12 kcal/mol|
|  sn= 2 | S(rot)=       0.00728611 Eh      4.57 kcal/mol|
|  sn= 3 | S(rot)=       0.00677250 Eh      4.25 kcal/mol|
|  sn= 4 | S(rot)=       0.00640809 Eh      4.02 kcal/mol|
|  sn= 5 | S(rot)=       0.00612543 Eh      3.84 kcal/mol|
|  sn= 6 | S(rot)=       0.00589448 Eh      3.70 kcal/mol|
|  sn= 7 | S(rot)=       0.00569921 Eh      3.58 kcal/mol|
|  sn= 8 | S(rot)=       0.00553006 Eh      3.47 kcal/mol|
|  sn= 9 | S(rot)=       0.00538086 Eh      3.38 kcal/mol|
|  sn=10 | S(rot)=       0.00524740 Eh      3.29 kcal/mol|
|  sn=11 | S(rot)=       0.00512667 Eh      3.22 kcal/mol|
|  sn=12 | S(rot)=       0.00501645 Eh      3.15 kcal/mol|
 linear molecules ---------------------------------------
|  Dinfh | S(rot)=       0.00471245 Eh      2.96 kcal/mol|
|  Cinfv | S(rot)=       0.00559047 Eh      3.51 kcal/mol|
 --------------------------------------------------------


-------------------
GIBBS FREE ENERGY
-------------------

The Gibbs free energy is G = H - T*S

Total enthalpy                    ...    -75.48386789 Eh 
Total entropy correction          ...     -0.03028804 Eh    -19.01 kcal/mol
-----------------------------------------------------------------------
Final Gibbs free energy         ...    -75.51415594 Eh

For completeness - the Gibbs free energy minus the electronic energy
G-E(el)                           ...     -0.00157524 Eh     -0.99 kcal/mol


The first frequency considered to be a vibration is 6
The total number of vibrations considered is 3


--------------------------
THERMOCHEMISTRY AT 500.00K
--------------------------

Temperature         ...   500.00 K
Pressure            ...     1.00 atm
Total Mass          ...    18.02 AMU
Quasi RRHO          ...     True
Cut-Off Frequency   ...     1.00 cm^-1

Throughout the following assumptions are being made:
  (1) The electronic state is orbitally nondegenerate
  (2) There are no thermally accessible electronically excited states
  (3) Hindered rotations indicated by low frequency modes are not
      treated as such but are treated as vibrations and this may
      cause some error
  (4) All equations used are the standard statistical mechanics
      equations for an ideal gas
  (5) All vibrations are strictly harmonic

freq.    1915.32  E(vib)   ...       0.02 
freq.    4119.98  E(vib)   ...       0.00 
freq.    4340.13  E(vib)   ...       0.00 

------------
INNER ENERGY
------------

The inner energy is: U= E(el) + E(ZPE) + E(vib) + E(rot) + E(trans)
    E(el)   - is the total energy from the electronic structure calculation
              = E(kin-el) + E(nuc-el) + E(el-el) + E(nuc-nuc)
    E(ZPE)  - the the zero temperature vibrational energy from the frequency calculation
    E(vib)  - the the finite temperature correction to E(ZPE) due to population
              of excited vibrational states
    E(rot)  - is the rotational thermal energy
    E(trans)- is the translational thermal energy

Summary of contributions to the inner energy U:
Electronic energy                ...    -75.51258069 Eh
Zero point energy                ...      0.02363698 Eh      14.83 kcal/mol
Thermal vibrational correction   ...      0.00003561 Eh       0.02 kcal/mol
Thermal rotational correction    ...      0.00237510 Eh       1.49 kcal/mol
Thermal translational correction ...      0.00237510 Eh       1.49 kcal/mol
-----------------------------------------------------------------------
Total thermal energy                    -75.48415791 Eh


Summary of corrections to the electronic energy:
(perhaps to be used in another calculation)
Total thermal correction                  0.00478581 Eh       3.00 kcal/mol
Non-thermal (ZPE) correction              0.02363698 Eh      14.83 kcal/mol
-----------------------------------------------------------------------
Total correction                          0.02842279 Eh      17.84 kcal/mol


--------
ENTHALPY
--------

The enthalpy is H = U + kB*T
                kB is Boltzmann's constant
Total thermal energy              ...    -75.48415791 Eh 
Thermal Enthalpy correction       ...      0.00158345 Eh       0.99 kcal/mol
-----------------------------------------------------------------------
Total Enthalpy                    ...    -75.48257446 Eh


Note: Rotational entropy computed according to Herzberg 
Infrared and Raman Spectra, Chapter V,1, Van Nostrand Reinhold, 1945 
Point Group:  C2v, Symmetry Number:   2  
Rotational constants in cm-1:    26.941152    13.867947     9.155274 

Vibrational entropy computed according to the QRRHO of S. Grimme
Chem.Eur.J. 2012 18 9955 using a reference frequency of 100.0 cm-1


-------
ENTROPY
-------

The entropy contributions are T*S = T*(S(el)+S(vib)+S(rot)+S(trans))
     S(el)   - electronic entropy
     S(vib)  - vibrational entropy
     S(rot)  - rotational entropy
     S(trans)- translational entropy
The entropies will be listed as multiplied by the temperature to get
units of energy

Electronic entropy                ...      0.00000000 Eh      0.00 kcal/mol
Vibrational entropy               ...      0.00004204 Eh      0.03 kcal/mol
Rotational entropy                ...      0.00963762 Eh      6.05 kcal/mol
Translational entropy             ...      0.02962298 Eh     18.59 kcal/mol
-----------------------------------------------------------------------
Final entropy term                ...      0.03930265 Eh     24.66 kcal/mol

In case the symmetry of your molecule has not been determined correctly
or in case you have a reason to use a different symmetry number we print 
out the resulting rotational entropy values for sn=1,12:

 non-linear molecules -----------------------------------
|  sn= 1 | S(rot)=       0.01073515 Eh      6.74 kcal/mol|
|  sn= 2 | S(rot)=       0.00963762 Eh      6.05 kcal/mol|
|  sn= 3 | S(rot)=       0.00899561 Eh      5.64 kcal/mol|
|  sn= 4 | S(rot)=       0.00854010 Eh      5.36 kcal/mol|
|  sn= 5 | S(rot)=       0.00818677 Eh      5.14 kcal/mol|
|  sn= 6 | S(rot)=       0.00789808 Eh      4.96 kcal/mol|
|  sn= 7 | S(rot)=       0.00765400 Eh      4.80 kcal/mol|
|  sn= 8 | S(rot)=       0.00744257 Eh      4.67 kcal/mol|
|  sn= 9 | S(rot)=       0.00725607 Eh      4.55 kcal/mol|
|  sn=10 | S(rot)=       0.00708924 Eh      4.45 kcal/mol|
|  sn=11 | S(rot)=       0.00693833 Eh      4.35 kcal/mol|
|  sn=12 | S(rot)=       0.00680055 Eh      4.27 kcal/mol|
 linear molecules ---------------------------------------
|  Dinfh | S(rot)=       0.00624389 Eh      3.92 kcal/mol|
|  Cinfv | S(rot)=       0.00734142 Eh      4.61 kcal/mol|
 --------------------------------------------------------


-------------------
GIBBS FREE ENERGY
-------------------

The Gibbs free energy is G = H - T*S

Total enthalpy                    ...    -75.48257446 Eh 
Total entropy correction          ...     -0.03930265 Eh    -24.66 kcal/mol
-----------------------------------------------------------------------
Final Gibbs free energy         ...    -75.52187711 Eh

For completeness - the Gibbs free energy minus the electronic energy
G-E(el)                           ...     -0.00929641 Eh     -5.83 kcal/mol


The first frequency considered to be a vibration is 6
The total number of vibrations considered is 3


--------------------------
THERMOCHEMISTRY AT 600.00K
--------------------------

Temperature         ...   600.00 K
Pressure            ...     1.00 atm
Total Mass          ...    18.02 AMU
Quasi RRHO          ...     True
Cut-Off Frequency   ...     1.00 cm^-1

Throughout the following assumptions are being made:
  (1) The electronic state is orbitally nondegenerate
  (2) There are no thermally accessible electronically excited states
  (3) Hindered rotations indicated by low frequency modes are not
      treated as such but are treated as vibrations and this may
      cause some error
  (4) All equations used are the standard statistical mechanics
      equations for an ideal gas
  (5) All vibrations are strictly harmonic

freq.    1915.32  E(vib)   ...       0.06 
freq.    4119.98  E(vib)   ...       0.00 
freq.    4340.13  E(vib)   ...       0.00 

------------
INNER ENERGY
------------

The inner energy is: U= E(el) + E(ZPE) + E(vib) + E(rot) + E(trans)
    E(el)   - is the total energy from the electronic structure calculation
              = E(kin-el) + E(nuc-el) + E(el-el) + E(nuc-nuc)
    E(ZPE)  - the the zero temperature vibrational energy from the frequency calculation
    E(vib)  - the the finite temperature correction to E(ZPE) due to population
              of excited vibrational states
    E(rot)  - is the rotational thermal energy
    E(trans)- is the translational thermal energy

Summary of contributions to the inner energy U:
Electronic energy                ...    -75.51258069 Eh
Zero point energy                ...      0.02363698 Eh      14.83 kcal/mol
Thermal vibrational correction   ...      0.00009082 Eh       0.06 kcal/mol
Thermal rotational correction    ...      0.00285012 Eh       1.79 kcal/mol
Thermal translational correction ...      0.00285012 Eh       1.79 kcal/mol
-----------------------------------------------------------------------
Total thermal energy                    -75.48315266 Eh


Summary of corrections to the electronic energy:
(perhaps to be used in another calculation)
Total thermal correction                  0.00579106 Eh       3.63 kcal/mol
Non-thermal (ZPE) correction              0.02363698 Eh      14.83 kcal/mol
-----------------------------------------------------------------------
Total correction                          0.02942803 Eh      18.47 kcal/mol


--------
ENTHALPY
--------

The enthalpy is H = U + kB*T
                kB is Boltzmann's constant
Total thermal energy              ...    -75.48315266 Eh 
Thermal Enthalpy correction       ...      0.00190014 Eh       1.19 kcal/mol
-----------------------------------------------------------------------
Total Enthalpy                    ...    -75.48125252 Eh


Note: Rotational entropy computed according to Herzberg 
Infrared and Raman Spectra, Chapter V,1, Van Nostrand Reinhold, 1945 
Point Group:  C2v, Symmetry Number:   2  
Rotational constants in cm-1:    26.941152    13.867947     9.155274 

Vibrational entropy computed according to the QRRHO of S. Grimme
Chem.Eur.J. 2012 18 9955 using a reference frequency of 100.0 cm-1


-------
ENTROPY
-------

The entropy contributions are T*S = T*(S(el)+S(vib)+S(rot)+S(trans))
     S(el)   - electronic entropy
     S(vib)  - vibrational entropy
     S(rot)  - rotational entropy
     S(trans)- translational entropy
The entropies will be listed as multiplied by the temperature to get
units of energy

Electronic entropy                ...      0.00000000 Eh      0.00 kcal/mol
Vibrational entropy               ...      0.00011031 Eh      0.07 kcal/mol
Rotational entropy                ...      0.01208479 Eh      7.58 kcal/mol
Translational entropy             ...      0.03641364 Eh     22.85 kcal/mol
-----------------------------------------------------------------------
Final entropy term                ...      0.04860874 Eh     30.50 kcal/mol

In case the symmetry of your molecule has not been determined correctly
or in case you have a reason to use a different symmetry number we print 
out the resulting rotational entropy values for sn=1,12:

 non-linear molecules -----------------------------------
|  sn= 1 | S(rot)=       0.01340182 Eh      8.41 kcal/mol|
|  sn= 2 | S(rot)=       0.01208479 Eh      7.58 kcal/mol|
|  sn= 3 | S(rot)=       0.01131437 Eh      7.10 kcal/mol|
|  sn= 4 | S(rot)=       0.01076775 Eh      6.76 kcal/mol|
|  sn= 5 | S(rot)=       0.01034376 Eh      6.49 kcal/mol|
|  sn= 6 | S(rot)=       0.00999734 Eh      6.27 kcal/mol|
|  sn= 7 | S(rot)=       0.00970444 Eh      6.09 kcal/mol|
|  sn= 8 | S(rot)=       0.00945072 Eh      5.93 kcal/mol|
|  sn= 9 | S(rot)=       0.00922692 Eh      5.79 kcal/mol|
|  sn=10 | S(rot)=       0.00902673 Eh      5.66 kcal/mol|
|  sn=11 | S(rot)=       0.00884563 Eh      5.55 kcal/mol|
|  sn=12 | S(rot)=       0.00868030 Eh      5.45 kcal/mol|
 linear molecules ---------------------------------------
|  Dinfh | S(rot)=       0.00783909 Eh      4.92 kcal/mol|
|  Cinfv | S(rot)=       0.00915613 Eh      5.75 kcal/mol|
 --------------------------------------------------------


-------------------
GIBBS FREE ENERGY
-------------------

The Gibbs free energy is G = H - T*S

Total enthalpy                    ...    -75.48125252 Eh 
Total entropy correction          ...     -0.04860874 Eh    -30.50 kcal/mol
-----------------------------------------------------------------------
Final Gibbs free energy         ...    -75.52986126 Eh

For completeness - the Gibbs free energy minus the electronic energy
G-E(el)                           ...     -0.01728057 Eh    -10.84 kcal/mol


Maximum memory used throughout the entire PROP-calculation: 22.8 MB

--------------------------------
SUGGESTED CITATIONS FOR THIS RUN
--------------------------------

Below you find a list of papers that are relevant to this ORCA run
We neither can nor want to force you to cite these papers, but we appreciate if you do
You receive ORCA, which is the product of decades of hard work by many enthusiastic individuals, for free
The only thing we kindly ask in return is that you cite our papers,
We deeply appreciate it, if you show your appreciation for ORCA by not just citing the generic ORCA reference.

Please note that relegating all ORCA citations to the supporting information does *not* help us.
SI sections are not indexed - citations you put there will not count into any citation statistics
But we need these citations in order to attract the funding resources that allow us to do what we are doing

Therefore, if you are a happy ORCA user, please consider citing a few of the papers listed below in the main body of your paper

In addition to the list printed below, the program has created the file H2O.bibtex that contains the list in bibtex format
You can import this file easily into all common literature databanks and citation aid programs


List of essential papers. We consider these as the minimum necessary citations

  1. Neese, F.
     Software update: the ORCA program system, version 6.0
     WIRES Comput. Molec. Sci. 2025 15(1), e70019
     doi.org/10.1002/wcms.7019

List of papers to cite with high priority. The work reported in these papers was absolutely
necessary for this run to complete.
Our perspective: the developers of density functionals and basis sets usually get cited in chemistry papers
Good! But without the algorithms to do something with them, the functionals or basis sets would not do anything.
Hence, in our opinion, the algorithm design and method developments papers are equally worthy of getting cited

  1. Grimme, S.; Antony, J.; Ehrlich, S.; Krieg, H.
     A consistent and accurate ab initio parametrization of density functional dispersion correction (DFT-D) for the 94 elements H-Pu
     J. Chem. Phys. 2010 132 , 154104
     doi.org/10.1063/1.3382344
  2. Grimme, S.; Ehrlich, S.; Goerigk, L.
     Effect of the damping function in dispersion corrected density functional theory
     J. Comput. Chem. 2011 32(7), 1456-1465
     doi.org/10.1002/jcc.21759
  3. Bykov, D.; Petrenko, T.; Izsak, R.; Kossmann, S.; Becker, U.; Valeev, E.; Neese, F.
     Efficient implementation of the analytic second derivatives of Hartree-Fock and hybrid DFT energies: a detailed analysis of different approximations
     Molec. Phys. 2015 113 , 1961-1977
     doi.org/10.1080/00268976.2015.1025114
  4. Neese, F.
     The SHARK Integral Generation and Digestion System
     J. Comp. Chem. 2022 44(3), 381
     doi.org/10.1002/jcc.26942

List of suggested additional citations. These are papers that are important in the 'surrounding' of 
of this run, or papers that preceded the highly important papers. If you like your results we are grateful for a citation.

  1. Neese, F.
     The ORCA program system
     WIRES Comput. Molec. Sci. 2012 2(1), 73-78
     doi.org/10.1002/wcms.81
  2. Neese, F.
     Software update: the ORCA program system, version 4.0
     WIRES Comput. Molec. Sci. 2018 8(1), 1-6
     doi.org/10.1002/wcms.1327
  3. Neese, F.; Wennmohs, F.; Becker, U.; Riplinger, C.
     The ORCA quantum chemistry program package
     J. Chem. Phys. 2020 152(22), 224108
     doi.org/10.1063/5.0004608
  4. Neese, F.
     Software update: The ORCA program system—Version 5.0
     WIRES Comput. Molec. Sci. 2022 12(1), e1606
     doi.org/10.1002/wcms.1606

List of optional additional citations

  1. Neese, F.
     Approximate second-order SCF convergence for spin unrestricted wavefunctions
     Chem. Phys. Lett. 2000 325(1-3), 93-98
     doi.org/10.1016/s0009-2614(00)00662-x

Timings for individual modules:

Sum of individual times          ...       66.203 sec (=   1.103 min)
Startup calculation              ...       12.691 sec (=   0.212 min)  19.2 %
SCF iterations                   ...       31.602 sec (=   0.527 min)  47.7 %
Property integrals               ...        4.181 sec (=   0.070 min)   6.3 %
SCF Response                     ...       12.481 sec (=   0.208 min)  18.9 %
Property calculations            ...        1.944 sec (=   0.032 min)   2.9 %
SCF Gradient evaluation          ...        2.823 sec (=   0.047 min)   4.3 %
Geometry relaxation              ...        0.481 sec (=   0.008 min)   0.7 %
                             ****ORCA TERMINATED NORMALLY****
TOTAL RUN TIME: 0 days 0 hours 1 minutes 15 seconds 545 msec
